Executable      : siesta
Version         : 5.2.1
Architecture    : x86_64
Compiler version: GNU-13.3.0
Compiler flags  : -march=nocona -mtune=haswell -ftree-vectorize -fPIC -fstack-protector-strong -fno-plt -O2 -ffunction-sections -pipe -isystem <prefix>/include -I<prefix>/_build_env/include -fdebug-prefix-map=<prefix>/work=/usr/local/src/conda/siesta-5.2.1 -fdebug-prefix-map=<prefix>=/usr/local/src/conda-prefix -I<prefix>/lib -fallow-argument-mismatch -O3
Parallelisations: none
NetCDF support
NetCDF-4 support
Lua support
DFT-D3 support

Runtime information:
* Directory : /home/samba/homes/convidat/SIESTA_examples-main/MD_reaction/Prueba 2
* Running in serial mode.
>> Start of run:  26-MAR-2025  12:41:08

                           *********************** 
                           *  WELCOME TO SIESTA  * 
                           *********************** 

 NOTE: Siesta V5 introduces some new defaults for basis-set generation
 NOTE: which might lead to slightly different numerical results.
 NOTE: Please see the manual for full details and compatibility measures.


reinit: Reading from file xoc.fdf

reinit: -----------------------------------------------------------------------
reinit: System Name: H2 + O2 -> H2O2 reaction
reinit: -----------------------------------------------------------------------
reinit: System Label: xoc
reinit: -----------------------------------------------------------------------

initatom: Reading input for the pseudopotentials and atomic orbitals ----------
Species number:   1 Atomic number:    8 Label: O
Species number:   2 Atomic number:    1 Label: H

Ground state valence configuration (from tables):   2s02  2p04  3d00  4f00
Ground state valence configuration (from tables):   1s01  2p00  3d00  4f00

---- Processing specs for species: O
Reading pseudopotential information in formatted form from:
  O.psf

---- Processing specs for species: H
Reading pseudopotential information in unformatted form from:
  H.vps

---- Pseudopotential check for O 

Pseudopotential generated from a fully relativistic atomic calculation
There are spin-orbit semi-local pseudopotentials available

Pseudized shells:
2s( 2.00) rc: 1.14
2p( 4.00) rc: 1.14
3d( 0.00) rc: 1.14
4f( 0.00) rc: 1.14
Valence configuration for ps generation: (assumed as above)

---- Pseudopotential check for H 

Pseudized shells:
1s( 1.00) rc: 1.25
2p( 0.00) rc: 1.25
3d( 0.00) rc: 1.25
4f( 0.00) rc: 1.25
Valence configuration for ps generation: (assumed as above)
For O, standard SIESTA heuristics set lmxkb to 3
 (one more than the basis l, including polarization orbitals).
Use PS.lmax or PS.KBprojectors blocks to override.
For H, standard SIESTA heuristics set lmxkb to 2
 (one more than the basis l, including polarization orbitals).
Use PS.lmax or PS.KBprojectors blocks to override.

<basis_specs>
===============================================================================
O                    Z=   8    Mass=  15.999        Charge= 0.17977+309
Lmxo=2 Lmxkb= 3    BasisType=split      Semic=F
L=0  Nsemic=0  Cnfigmx=2
          i=1  nzeta=1  polorb=0  (2s)
            splnorm:   0.15000    
               vcte:    40.000    
               rinn:  -0.90000    
               qcoe:    0.0000    
               qyuk:    0.0000    
               qwid:   0.10000E-01
                rcs:    0.0000    
            lambdas:    1.0000    
L=1  Nsemic=0  Cnfigmx=2
          i=1  nzeta=1  polorb=1  (2p)  (to be polarized perturbatively)
            splnorm:   0.15000    
               vcte:    40.000    
               rinn:  -0.90000    
               qcoe:    0.0000    
               qyuk:    0.0000    
               qwid:   0.10000E-01
                rcs:    0.0000    
            lambdas:    1.0000    
L=2  Nsemic=0  Cnfigmx=3
          i=1  nzeta=0  polorb=0  (3d)  (perturbative polarization orbital) (from 2p)
-------------------------------------------------------------------------------
L=0  Nkbl=1  erefs: 0.17977+309
L=1  Nkbl=1  erefs: 0.17977+309
L=2  Nkbl=1  erefs: 0.17977+309
L=3  Nkbl=1  erefs: 0.17977+309
===============================================================================
</basis_specs>

Using PAO.SplitTailNorm
atom: Called for O                     (Z =   8)
Maximum radius (at nrval) set to   50.00000 8518

read_vps: Pseudopotential generation method:
read_vps: ATM3      Troullier-Martins                       
Valence charge in pseudo generation:    6.00000

read_vps: Pseudopotential includes a core correction:
read_vps: Pseudo-core for xc-correction

xc_check: Exchange-correlation functional:
xc_check: GGA Perdew, Burke & Ernzerhof 1996
V l=0 = -2*Zval/r beyond r=  1.1355
V l=1 = -2*Zval/r beyond r=  1.1355
V l=2 = -2*Zval/r beyond r=  1.1309
V l=3 = -2*Zval/r beyond r=  1.1286
All V_l potentials equal beyond r=  1.1355
This should be close to max(r_c) in ps generation
All pots = -2*Zval/r beyond r=  1.1355
Using small-core scheme (local charge) for Vlocal

VLOCAL_FROM_CHLOCAL: 99.0% of the norm of Vloc inside     33.667 Ry
VLOCAL_FROM_CHLOCAL: 99.9% of the norm of Vloc inside     76.727 Ry
atom: Maximum radius for chlocal:    1.37241
atom: Maximum radius for r*vlocal+2*Zval:    1.25469

KBgen: Kleinman-Bylander projectors: 
GHOST: No ghost state for L =  0
   l= 0   rc=  1.357289   el= -1.759790   Ekb=  9.151830   kbcos=  0.327271
GHOST: No ghost state for L =  1
   l= 1   rc=  1.345038   el= -0.663797   Ekb= -7.991133   kbcos= -0.393963
GHOST: No ghost state for L =  2
   l= 2   rc=  1.779310   el=  0.012956   Ekb= -1.983219   kbcos= -0.003702
GHOST: No ghost state for L =  3
   l= 3   rc=  2.085579   el=  0.019231   Ekb= -0.873623   kbcos= -0.000360

KBgen: Total number of Kleinman-Bylander projectors:  16
atom: -------------------------------------------------------------------------

atom: SANKEY-TYPE ORBITALS:

SPLIT: Orbitals with angular momentum L= 0

SPLIT: Basis orbitals for state 2s

SPLIT: PAO cut-off radius determined from an
SPLIT: energy shift=  0.010000 Ry
Split based on tail norm

   izeta = 1
                 lambda =    1.000000
                     rc =    3.532490
                 energy =   -1.748682
                kinetic =    1.612754
    potential(screened) =   -3.361436
       potential(ionic) =  -11.306460

SPLIT: Orbitals with angular momentum L= 1

SPLIT: Basis orbitals for state 2p

SPLIT: PAO cut-off radius determined from an
SPLIT: energy shift=  0.010000 Ry
Split based on tail norm

   izeta = 1
                 lambda =    1.000000
                     rc =    4.299534
                 energy =   -0.652755
                kinetic =    4.913628
    potential(screened) =   -5.566382
       potential(ionic) =  -13.292903

POLgen: Perturbative polarization orbital with L=  2

POLgen: Polarization orbital for state 2p
Split based on tail norm

   izeta = 1
                     rc =    4.299534
                 energy =    2.258078
                kinetic =    4.298689
    potential(screened) =   -2.040611
       potential(ionic) =   -8.188336
atom: Total number of Sankey-type orbitals:  9

atm_pop: Valence configuration (for local Pseudopot. screening):
 2s( 2.00)                                                            
 2p( 4.00)                                                            
 3d( 0.00)                                                            
Vna: chval, zval:    6.00000   6.00000

Vna:  Cut-off radius for the neutral-atom potential:   4.299534
comcore: Pseudo-core radius Rcore=  1.364142

atom: _________________________________________________________________________

<basis_specs>
===============================================================================
H                    Z=   1    Mass=  1.0080        Charge= 0.17977+309
Lmxo=1 Lmxkb= 2    BasisType=split      Semic=F
L=0  Nsemic=0  Cnfigmx=1
          i=1  nzeta=1  polorb=1  (1s)  (to be polarized perturbatively)
            splnorm:   0.15000    
               vcte:    40.000    
               rinn:  -0.90000    
               qcoe:    0.0000    
               qyuk:    0.0000    
               qwid:   0.10000E-01
                rcs:    0.0000    
            lambdas:    1.0000    
L=1  Nsemic=0  Cnfigmx=2
          i=1  nzeta=0  polorb=0  (2p)  (perturbative polarization orbital) (from 1s)
-------------------------------------------------------------------------------
L=0  Nkbl=1  erefs: 0.17977+309
L=1  Nkbl=1  erefs: 0.17977+309
L=2  Nkbl=1  erefs: 0.17977+309
===============================================================================
</basis_specs>

Using PAO.SplitTailNorm
atom: Called for H                     (Z =   1)
Maximum radius (at nrval) set to   50.00000 8518

read_vps: Pseudopotential generation method:
read_vps: ATM3      Troullier-Martins                       
Valence charge in pseudo generation:    1.00000

xc_check: Exchange-correlation functional:
xc_check: GGA Perdew, Burke & Ernzerhof 1996
V l=0 = -2*Zval/r beyond r=  1.2384
V l=1 = -2*Zval/r beyond r=  1.2321
V l=2 = -2*Zval/r beyond r=  1.2235
All V_l potentials equal beyond r=  1.2371
This should be close to max(r_c) in ps generation
All pots = -2*Zval/r beyond r=  1.2384
Using small-core scheme (local charge) for Vlocal

VLOCAL_FROM_CHLOCAL: 99.0% of the norm of Vloc inside     28.363 Ry
VLOCAL_FROM_CHLOCAL: 99.9% of the norm of Vloc inside     64.639 Ry
atom: Maximum radius for chlocal:    1.44620
atom: Maximum radius for r*vlocal+2*Zval:    1.31026

KBgen: Kleinman-Bylander projectors: 
GHOST: No ghost state for L =  0
   l= 0   rc=  1.362769   el= -0.477200   Ekb= -2.026093   kbcos= -0.345051
GHOST: No ghost state for L =  1
   l= 1   rc=  1.431710   el=  0.007219   Ekb= -0.445752   kbcos= -0.023729
GHOST: No ghost state for L =  2
   l= 2   rc=  1.471166   el=  0.012944   Ekb= -0.141918   kbcos= -0.003041

KBgen: Total number of Kleinman-Bylander projectors:   9
atom: -------------------------------------------------------------------------

atom: SANKEY-TYPE ORBITALS:

SPLIT: Orbitals with angular momentum L= 0

SPLIT: Basis orbitals for state 1s

SPLIT: PAO cut-off radius determined from an
SPLIT: energy shift=  0.010000 Ry
Split based on tail norm

   izeta = 1
                 lambda =    1.000000
                     rc =    5.232664
                 energy =   -0.466073
                kinetic =    0.944036
    potential(screened) =   -1.410108
       potential(ionic) =   -1.935607

POLgen: Perturbative polarization orbital with L=  1

POLgen: Polarization orbital for state 1s
Split based on tail norm

   izeta = 1
                     rc =    5.232664
                 energy =    0.681103
                kinetic =    1.331928
    potential(screened) =   -0.650824
       potential(ionic) =   -1.138826
atom: Total number of Sankey-type orbitals:  4

atm_pop: Valence configuration (for local Pseudopot. screening):
 1s( 1.00)                                                            
 2p( 0.00)                                                            
Vna: chval, zval:    1.00000   1.00000

Vna:  Cut-off radius for the neutral-atom potential:   5.232664

atom: _________________________________________________________________________

prinput: Basis input 

PAO.BasisType split     

%block ChemicalSpeciesLabel
    1    8 O                       # Species index, atomic number, species label
    2    1 H                       # Species index, atomic number, species label
%endblock ChemicalSpeciesLabel

%block PAO.Basis                 # Define Basis set
# WARNING: This information might be incomplete!
O                     2                    # Species label, number of l-shells
 n=2   0   1                         # n, l, Nzeta 
   3.532   
   1.000   
 n=2   1   1 P   1                   # n, l, Nzeta, Polarization, NzetaPol
   4.300   
   1.000   
H                     1                    # Species label, number of l-shells
 n=1   0   1 P   1                   # n, l, Nzeta, Polarization, NzetaPol
   5.233   
   1.000   
%endblock PAO.Basis

prinput: ----------------------------------------------------------------------

Dumping basis to NetCDF file O.ion.nc
Dumping basis to NetCDF file H.ion.nc
coor:   Atomic-coordinates input format  =     Cartesian coordinates
coor:                                          (in Angstroms)

ioxv: Reading coordinates and velocities from file
! Info in XV file prevails over previous structure input
WARNING: xoc.VERLET_RESTART not found--reading only XV file and moving back 1 time step using Euler

siesta: Atomic coordinates (Bohr) and species
siesta:      2.54735  -0.00100  -0.00070  1        1
siesta:      5.01155  -0.00100  -0.00070  1        2
siesta:     12.73789   0.01600   0.01130  2        3
siesta:     14.12778   0.01600   0.01130  2        4

siesta: System type = chain     

initatomlists: Number of atoms, orbitals, and projectors:      4    26    50

coxmol: Writing XMOL coordinates into file xoc.xyz                                                                                                                                                                                                                             

siesta: ******************** Simulation parameters ****************************
siesta:
siesta: The following are some of the parameters of the simulation.
siesta: A complete list of the parameters used, including default values,
siesta: can be found in file out.fdf
siesta:
redata: Spin configuration                          = none
redata: Number of spin components                   = 1
redata: Time-Reversal Symmetry                      = T
redata: Spin spiral                                 = F
redata: Long output                                 =   F
redata: Number of Atomic Species                    =        2
redata: Charge density info will appear in .RHO file
redata: Write Mulliken charges (when)               = none
redata: Write Mulliken Pop.                         = NO
redata: Write Hirshfeld charges (when)              = none
redata: Write Voronoi charges (when)                = none
redata: Write spin charge (when)                    = none
redata: Matel table size (NRTAB)                    =     1024
redata: Mesh Cutoff                                 =   200.0000 Ry
redata: Net charge of the system                    =     0.0000 |e|
redata: Min. number of SCF Iter                     =        0
redata: Max. number of SCF Iter                     =      250
redata: SCF convergence failure will abort job
redata: SCF mix quantity                            = Hamiltonian
redata: Mix DM or H after convergence               =   F
redata: Recompute H after scf cycle                 =   F
redata: Mix DM in first SCF step                    =   T
redata: Write Pulay info on disk                    =   F
redata: New DM Occupancy tolerance                  = 0.000000000001
redata: No kicks to SCF
redata: DM Mixing Weight for Kicks                  =     0.5000
redata: Require Harris convergence for SCF          =   F
redata: Harris energy tolerance for SCF             =     0.000100 eV
redata: Require DM convergence for SCF              =   T
redata: DM tolerance for SCF                        =     0.000300
redata: Require EDM convergence for SCF             =   F
redata: EDM tolerance for SCF                       =     0.001000 eV
redata: Require H convergence for SCF               =   T
redata: Hamiltonian tolerance for SCF               =     0.001000 eV
redata: Require (free) Energy convergence for SCF   =   F
redata: (free) Energy tolerance for SCF             =     0.000100 eV
redata: Using DFT-D3 dispersion                     =   F
redata: Using Saved Data (generic)                  =   F
redata: Use continuation files for DM               =   T
redata: Neglect nonoverlap interactions             =   F
redata: Method of Calculation                       = Diagonalization
redata: Electronic Temperature                      =   290.1130 K
redata: Fix the spin of the system                  =   F
redata: Max. number of TDED Iter                    =        1
redata: Number of TDED substeps                     =        3
redata: Dynamics option                             = Verlet MD run
redata: Initial MD time step                        =        1
redata:   Final MD time step                        =      200
redata: Length of MD time step                      =     1.0000 fs
redata: Initial Temperature of MD run               =     0.0000 K
redata: Perform a MD quench                         =   F
mix.SCF: Pulay mixing                            = Pulay
mix.SCF:    Variant                              = stable
mix.SCF:    History steps                        = 6
mix.SCF:    Linear mixing weight                 =     0.020000
mix.SCF:    Mixing weight                        =     0.020000
mix.SCF:    SVD condition                        = 0.1000E-07
redata: Save all siesta data in one NC              =   F
redata: ***********************************************************************

%block SCF.Mixers
  Pulay
%endblock SCF.Mixers

%block SCF.Mixer.Pulay
  # Mixing method
  method pulay
  variant stable

  # Mixing options
  weight 0.0200
  weight.linear 0.0200
  history 6
%endblock SCF.Mixer.Pulay

Size of DM history Fstack: 1
Total number of electrons:    14.000000
Total ionic charge:    14.000000
 Kpoints in:            1 . Kpoints trimmed:            1

siesta: k-grid: Number of k-points = 1
siesta: k-points from Monkhorst-Pack grid
siesta: k-cutoff (effective) =     5.000 Ang
siesta: k-point supercell and displacements
siesta: k-grid:     1     0     0      0.000
siesta: k-grid:     0     1     0      0.000
siesta: k-grid:     0     0     1      0.000

diag: Algorithm                                     = D&C
diag: Used triangular part                          = Lower
diag: Absolute tolerance                            =  0.100E-15
diag: Orthogonalization factor                      =  0.100E-05
diag: Memory factor                                 =  1.0000


ts: **************************************************************
ts: Save H and S matrices                           =    F
ts: Save DM and EDM matrices                        =    F
ts: Only save the overlap matrix S                  =    F
ts: **************************************************************

************************ Begin: TS CHECKS AND WARNINGS ************************
************************ End: TS CHECKS AND WARNINGS **************************


                     ====================================
                        Begin MD step =      1
                     ====================================

outcell: Unit cell vectors (Ang):
       10.000004    0.000000    0.000000
        0.000000   10.000004    0.000000
        0.000000    0.000000   10.000004

outcell: Cell vector modules (Ang)   :   10.000004   10.000004   10.000004
outcell: Cell angles (23,13,12) (deg):     90.0000     90.0000     90.0000
outcell: Cell volume (Ang**3)        :   1000.0012
Gamma-point calculation with multiply-connected orbital pairs
Folding of H and S implicitly performed
<dSpData1D:S at geom step 1
  <sparsity:sparsity for geom step 1
    nrows_g=26 nrows=26 sparsity=1.0000 nnzs=676, refcount: 7>
  <dData1D:(new from dSpData1D) n=676, refcount: 1>
refcount: 1>
new_DM -- step:     1
Initializing Density Matrix...

Attempting to read DM from file... Failed...
DM filled with atomic data:
<dSpData2D:DM initialized from atoms
  <sparsity:sparsity for geom step 1
    nrows_g=26 nrows=26 sparsity=1.0000 nnzs=676, refcount: 8>
  <dData2D:DM n=676 m=1, refcount: 1>
refcount: 1>
No. of atoms with KB's overlaping orbs in proc 0. Max # of overlaps:       4      22

InitMesh: MESH = 90 x 90 x 90 = 729000
InitMesh: Mesh cutoff (required, used) =   200.000   223.865 Ry
New grid distribution [1]: sub = 2

stepf: Fermi-Dirac step function

siesta: Program's energy decomposition (eV):
siesta: Ebs     =      -209.988751
siesta: Eions   =      1581.702395
siesta: Ena     =       338.414539
siesta: Ekin    =       624.581032
siesta: Enl     =       -90.802285
siesta: Eso     =         0.000000
siesta: Edftu   =         0.000000
siesta: DEna    =        14.342658
siesta: DUscf   =         1.600702
siesta: DUext   =         0.000000
siesta: Ex      =      -190.491108
siesta: Ec      =       -13.816884
siesta: Exc     =      -204.307993
siesta: EbV     =         0.000000
siesta: eta*DQ  =         0.000000
siesta: Emadel  =         0.000000
siesta: Emeta   =         0.000000
siesta: Emolmec =         0.000000
siesta: Ekinion =         0.000000
siesta: Eharris =      -900.303864
siesta: Etot    =      -897.873742
siesta: FreeEng =      -897.943057

        iscf     Eharris(eV)        E_KS(eV)     FreeEng(eV)     dDmax    Ef(eV) dHmax(eV)
   scf:    1     -900.303864     -897.873742     -897.943057  0.774894 -4.685374  2.422306
timer: Routine,Calls,Time,% = IterSCF        1       0.561  24.96
   scf:    2     -897.911698     -897.892778     -897.962093  0.001844 -4.717970  2.356450
   scf:    3     -898.334571     -898.177796     -898.247110  0.064621 -5.796954  0.204000
   scf:    4     -898.177533     -898.179087     -898.248402  0.009239 -5.710282  0.383584
   scf:    5     -898.183130     -898.181403     -898.250718  0.007301 -5.910398  0.016935
   scf:    6     -898.181373     -898.181400     -898.250715  0.000666 -5.904697  0.015311
mix: Pulay -- inversion failed, > SVD [rank/size] 4 / 5
   scf:    7     -898.181410     -898.181405     -898.250720  0.000074 -5.905783  0.013124
   scf:    8     -898.181429     -898.181420     -898.250734  0.000404 -5.907962  0.001966
   scf:    9     -898.181420     -898.181420     -898.250735  0.000344 -5.908479  0.000246
   scf:   10     -898.181420     -898.181420     -898.250735  0.000008 -5.908400  0.000122

SCF Convergence by DM+H criterion
max |DM_out - DM_in|         :     0.0000079932
max |H_out - H_in|      (eV) :     0.0001217426
SCF cycle converged after 10 iterations

Using DM_out to compute the final energy and forces
No. of atoms with KB's overlaping orbs in proc 0. Max # of overlaps:       4      22

siesta: E_KS(eV) =             -898.1814

siesta: E_KS - E_eggbox =      -898.1814

siesta: Atomic forces (eV/Ang):
----------------------------------------
   Tot    0.000929   -0.000599   -0.000411
----------------------------------------
   Max    4.607523
   Res    1.879774    sqrt( Sum f_i^2 / 3N )
----------------------------------------
   Max    4.607523    constrained

Stress tensor Voigt[x,y,z,yz,xz,xy] (kbar):       -9.42       -0.42       -0.25       -0.10        0.01        0.23
(Free)E + p*V (eV/cell)     -896.1540
Target enthalpy (eV/cell)     -898.2507

siesta: Stress tensor (static) (eV/Ang**3):
        -0.003342   -0.000000   -0.000000
        -0.000000    0.000006    0.000000
        -0.000000    0.000000    0.000006

siesta: Pressure (static):          1.77828675  kBar

siesta: Stress tensor (total) (eV/Ang**3):
        -0.005877    0.000143    0.000006
         0.000143   -0.000259   -0.000060
         0.000006   -0.000060   -0.000154

siesta: Pressure (total):          3.35926392  kBar

siesta: Temp_ion =    3816.995 K

                     ====================================
                        Begin MD step =      2
                     ====================================

outcell: Unit cell vectors (Ang):
       10.000004    0.000000    0.000000
        0.000000   10.000004    0.000000
        0.000000    0.000000   10.000004

outcell: Cell vector modules (Ang)   :   10.000004   10.000004   10.000004
outcell: Cell angles (23,13,12) (deg):     90.0000     90.0000     90.0000
outcell: Cell volume (Ang**3)        :   1000.0012
<dSpData1D:S at geom step 2
  <sparsity:sparsity for geom step 2
    nrows_g=26 nrows=26 sparsity=.9763 nnzs=660, refcount: 7>
  <dData1D:(new from dSpData1D) n=660, refcount: 1>
refcount: 1>
new_DM -- step:     2
Re-using DM from previous geometries...
Number of DMs in history: 1
 DM extrapolation coefficients: 
1   1.00000
New DM after history re-use:
<dSpData2D:SpM extrapolated using coords
  <sparsity:sparsity for geom step 2
    nrows_g=26 nrows=26 sparsity=.9763 nnzs=660, refcount: 9>
  <dData2D:(temp array for extrapolation) n=660 m=1, refcount: 1>
refcount: 1>
Note: For starting DM, Qtot, Tr[D*S] =         14.00000000         13.98532870
No. of atoms with KB's overlaping orbs in proc 0. Max # of overlaps:       4      18

InitMesh: MESH = 90 x 90 x 90 = 729000
InitMesh: Mesh cutoff (required, used) =   200.000   223.865 Ry
New grid distribution [1]: sub = 2

        iscf     Eharris(eV)        E_KS(eV)     FreeEng(eV)     dDmax    Ef(eV) dHmax(eV)
   scf:    1     -898.112330     -898.313473     -898.382788  0.012560 -5.701858  0.208567
   scf:    2     -898.312896     -898.313750     -898.383056  0.010036 -5.888037  0.093000
   scf:    3     -898.314538     -898.314188     -898.383500  0.003942 -5.843381  0.045412
   scf:    4     -898.314075     -898.314238     -898.383548  0.010492 -5.850546  0.019571
   scf:    5     -898.314242     -898.314294     -898.383608  0.007875 -5.853607  0.015784
   scf:    6     -898.314314     -898.314304     -898.383618  0.000286 -5.868231  0.011397
   scf:    7     -898.314326     -898.314322     -898.383637  0.002635 -5.864597  0.000841
   scf:    8     -898.314322     -898.314322     -898.383637  0.000156 -5.864998  0.000207

SCF Convergence by DM+H criterion
max |DM_out - DM_in|         :     0.0001559738
max |H_out - H_in|      (eV) :     0.0002070681
SCF cycle converged after 8 iterations

Using DM_out to compute the final energy and forces
No. of atoms with KB's overlaping orbs in proc 0. Max # of overlaps:       4      18

siesta: E_KS(eV) =             -898.3143

siesta: Atomic forces (eV/Ang):
----------------------------------------
   Tot    0.000703    0.000154    0.000195
----------------------------------------
   Max    2.934095
   Res    1.221023    sqrt( Sum f_i^2 / 3N )
----------------------------------------
   Max    2.934095    constrained

Stress tensor Voigt[x,y,z,yz,xz,xy] (kbar):       -8.70       -0.42       -0.26       -0.11       -0.24        0.05
(Free)E + p*V (eV/cell)     -896.4299
Target enthalpy (eV/cell)     -898.3836

siesta: Stress tensor (static) (eV/Ang**3):
        -0.002896   -0.000112   -0.000157
        -0.000112    0.000001   -0.000007
        -0.000157   -0.000007   -0.000005

siesta: Pressure (static):          1.54919672  kBar

siesta: Stress tensor (total) (eV/Ang**3):
        -0.005432    0.000031   -0.000151
         0.000031   -0.000264   -0.000067
        -0.000151   -0.000067   -0.000165

siesta: Pressure (total):          3.13017389  kBar

siesta: Temp_ion =    4078.624 K

                     ====================================
                        Begin MD step =      3
                     ====================================

outcell: Unit cell vectors (Ang):
       10.000004    0.000000    0.000000
        0.000000   10.000004    0.000000
        0.000000    0.000000   10.000004

outcell: Cell vector modules (Ang)   :   10.000004   10.000004   10.000004
outcell: Cell angles (23,13,12) (deg):     90.0000     90.0000     90.0000
outcell: Cell volume (Ang**3)        :   1000.0012
Gamma-point calculation with multiply-connected orbital pairs
Folding of H and S implicitly performed
<dSpData1D:S at geom step 3
  <sparsity:sparsity for geom step 3
    nrows_g=26 nrows=26 sparsity=.9882 nnzs=668, refcount: 7>
  <dData1D:(new from dSpData1D) n=668, refcount: 1>
refcount: 1>
new_DM -- step:     3
Re-using DM from previous geometries...
Number of DMs in history: 1
 DM extrapolation coefficients: 
1   1.00000
New DM after history re-use:
<dSpData2D:SpM extrapolated using coords
  <sparsity:sparsity for geom step 3
    nrows_g=26 nrows=26 sparsity=.9882 nnzs=668, refcount: 9>
  <dData2D:(temp array for extrapolation) n=668 m=1, refcount: 1>
refcount: 1>
Note: For starting DM, Qtot, Tr[D*S] =         14.00000000         13.95448709
No. of atoms with KB's overlaping orbs in proc 0. Max # of overlaps:       4      22

InitMesh: MESH = 90 x 90 x 90 = 729000
InitMesh: Mesh cutoff (required, used) =   200.000   223.865 Ry
New grid distribution [1]: sub = 2

        iscf     Eharris(eV)        E_KS(eV)     FreeEng(eV)     dDmax    Ef(eV) dHmax(eV)
   scf:    1     -898.111660     -898.425673     -898.494987  0.021721 -5.372363  0.541255
   scf:    2     -898.421191     -898.425633     -898.494848  0.026944 -5.869272  0.170599
   scf:    3     -898.428676     -898.427305     -898.496584  0.009831 -5.783675  0.091613
   scf:    4     -898.426272     -898.427703     -898.496983  0.029396 -5.797632  0.048502
   scf:    5     -898.427999     -898.428164     -898.497477  0.017457 -5.804918  0.035546
   scf:    6     -898.428278     -898.428228     -898.497543  0.001387 -5.838187  0.024264
   scf:    7     -898.428316     -898.428285     -898.497600  0.001662 -5.825571  0.001742
   scf:    8     -898.428284     -898.428285     -898.497599  0.000514 -5.826225  0.001276
   scf:    9     -898.428284     -898.428285     -898.497599  0.000052 -5.826781  0.000713

SCF Convergence by DM+H criterion
max |DM_out - DM_in|         :     0.0000519402
max |H_out - H_in|      (eV) :     0.0007129998
SCF cycle converged after 9 iterations

Using DM_out to compute the final energy and forces
No. of atoms with KB's overlaping orbs in proc 0. Max # of overlaps:       4      22

siesta: E_KS(eV) =             -898.4283

siesta: Atomic forces (eV/Ang):
----------------------------------------
   Tot    0.000241    0.000055    0.000139
----------------------------------------
   Max    1.038126
   Res    0.430843    sqrt( Sum f_i^2 / 3N )
----------------------------------------
   Max    1.038126    constrained

Stress tensor Voigt[x,y,z,yz,xz,xy] (kbar):       -6.12       -0.42       -0.26       -0.10       -0.28       -0.02
(Free)E + p*V (eV/cell)     -897.0824
Target enthalpy (eV/cell)     -898.4976

siesta: Stress tensor (static) (eV/Ang**3):
        -0.001097   -0.000017    0.000029
        -0.000017    0.000005    0.000002
         0.000029    0.000002    0.000009

siesta: Pressure (static):          0.57801180  kBar

siesta: Stress tensor (total) (eV/Ang**3):
        -0.003819   -0.000015   -0.000173
        -0.000015   -0.000265   -0.000065
        -0.000173   -0.000065   -0.000162

siesta: Pressure (total):          2.26735435  kBar

siesta: Temp_ion =    4344.582 K

                     ====================================
                        Begin MD step =      4
                     ====================================

outcell: Unit cell vectors (Ang):
       10.000004    0.000000    0.000000
        0.000000   10.000004    0.000000
        0.000000    0.000000   10.000004

outcell: Cell vector modules (Ang)   :   10.000004   10.000004   10.000004
outcell: Cell angles (23,13,12) (deg):     90.0000     90.0000     90.0000
outcell: Cell volume (Ang**3)        :   1000.0012
<dSpData1D:S at geom step 4
  <sparsity:sparsity for geom step 4
    nrows_g=26 nrows=26 sparsity=1.0000 nnzs=676, refcount: 7>
  <dData1D:(new from dSpData1D) n=676, refcount: 1>
refcount: 1>
new_DM -- step:     4
Re-using DM from previous geometries...
Number of DMs in history: 1
 DM extrapolation coefficients: 
1   1.00000
New DM after history re-use:
<dSpData2D:SpM extrapolated using coords
  <sparsity:sparsity for geom step 4
    nrows_g=26 nrows=26 sparsity=1.0000 nnzs=676, refcount: 9>
  <dData2D:(temp array for extrapolation) n=676 m=1, refcount: 1>
refcount: 1>
Note: For starting DM, Qtot, Tr[D*S] =         14.00000000         13.94765565
No. of atoms with KB's overlaping orbs in proc 0. Max # of overlaps:       4      22

InitMesh: MESH = 90 x 90 x 90 = 729000
InitMesh: Mesh cutoff (required, used) =   200.000   223.865 Ry
New grid distribution [1]: sub = 2

        iscf     Eharris(eV)        E_KS(eV)     FreeEng(eV)     dDmax    Ef(eV) dHmax(eV)
   scf:    1     -897.947614     -898.299790     -898.369099  0.021156 -5.278018  0.620546
   scf:    2     -898.265874     -898.290682     -898.359162  0.085808 -5.841782  0.286980
   scf:    3     -898.304216     -898.298316     -898.367327  0.030652 -5.741855  0.173643
   scf:    4     -898.298119     -898.301868     -898.371132  0.064741 -5.762387  0.074480
   scf:    5     -898.301907     -898.302591     -898.371896  0.027894 -5.767982  0.038097
   scf:    6     -898.302727     -898.302681     -898.371994  0.004904 -5.773742  0.039182
   scf:    7     -898.302898     -898.302818     -898.372133  0.002626 -5.794752  0.002685
   scf:    8     -898.302821     -898.302820     -898.372135  0.000523 -5.795257  0.001797
   scf:    9     -898.302819     -898.302820     -898.372134  0.000621 -5.796015  0.001411
   scf:   10     -898.302820     -898.302820     -898.372134  0.000094 -5.796197  0.001170
   scf:   11     -898.302820     -898.302820     -898.372135  0.000464 -5.796698  0.000516
   scf:   12     -898.302820     -898.302820     -898.372135  0.000030 -5.796672  0.000433

SCF Convergence by DM+H criterion
max |DM_out - DM_in|         :     0.0000300713
max |H_out - H_in|      (eV) :     0.0004328990
SCF cycle converged after 12 iterations

Using DM_out to compute the final energy and forces
No. of atoms with KB's overlaping orbs in proc 0. Max # of overlaps:       4      22

siesta: E_KS(eV) =             -898.3028

siesta: Atomic forces (eV/Ang):
----------------------------------------
   Tot   -0.000921    0.000279    0.000270
----------------------------------------
   Max    2.029007
   Res    1.036710    sqrt( Sum f_i^2 / 3N )
----------------------------------------
   Max    2.029007    constrained

Stress tensor Voigt[x,y,z,yz,xz,xy] (kbar):       -4.49       -0.40       -0.18       -0.05        0.11        0.14
(Free)E + p*V (eV/cell)     -897.3183
Target enthalpy (eV/cell)     -898.3721

siesta: Stress tensor (static) (eV/Ang**3):
         0.000113    0.000156    0.000356
         0.000156    0.000028    0.000041
         0.000356    0.000041    0.000067

siesta: Pressure (static):         -0.11106184  kBar

siesta: Stress tensor (total) (eV/Ang**3):
        -0.002801    0.000090    0.000071
         0.000090   -0.000247   -0.000033
         0.000071   -0.000033   -0.000114

siesta: Pressure (total):          1.68843872  kBar

siesta: Temp_ion =    4064.793 K

                     ====================================
                        Begin MD step =      5
                     ====================================

outcell: Unit cell vectors (Ang):
       10.000004    0.000000    0.000000
        0.000000   10.000004    0.000000
        0.000000    0.000000   10.000004

outcell: Cell vector modules (Ang)   :   10.000004   10.000004   10.000004
outcell: Cell angles (23,13,12) (deg):     90.0000     90.0000     90.0000
outcell: Cell volume (Ang**3)        :   1000.0012
<dSpData1D:S at geom step 5
  <sparsity:sparsity for geom step 5
    nrows_g=26 nrows=26 sparsity=1.0000 nnzs=676, refcount: 7>
  <dData1D:(new from dSpData1D) n=676, refcount: 1>
refcount: 1>
new_DM -- step:     5
Re-using DM from previous geometries...
Number of DMs in history: 1
 DM extrapolation coefficients: 
1   1.00000
New DM after history re-use:
<dSpData2D:SpM extrapolated using coords
  <sparsity:sparsity for geom step 5
    nrows_g=26 nrows=26 sparsity=1.0000 nnzs=676, refcount: 9>
  <dData2D:(temp array for extrapolation) n=676 m=1, refcount: 1>
refcount: 1>
Note: For starting DM, Qtot, Tr[D*S] =         14.00000000         13.96504966
No. of atoms with KB's overlaping orbs in proc 0. Max # of overlaps:       4      22

InitMesh: MESH = 90 x 90 x 90 = 729000
InitMesh: Mesh cutoff (required, used) =   200.000   223.865 Ry
New grid distribution [1]: sub = 2

        iscf     Eharris(eV)        E_KS(eV)     FreeEng(eV)     dDmax    Ef(eV) dHmax(eV)
   scf:    1     -897.895444     -898.148520     -898.217834  0.012970 -5.427822  0.423530
   scf:    2     -898.140823     -898.146827     -898.216006  0.038090 -5.806586  0.200237
   scf:    3     -898.150267     -898.148742     -898.218009  0.013557 -5.736499  0.125137
   scf:    4     -898.147515     -898.149316     -898.218589  0.037102 -5.754239  0.045387
   scf:    5     -898.149769     -898.149860     -898.219175  0.019418 -5.759165  0.027066
   scf:    6     -898.149892     -898.149877     -898.219192  0.001129 -5.772345  0.023543
   scf:    7     -898.149953     -898.149924     -898.219239  0.000907 -5.774607  0.001214
   scf:    8     -898.149924     -898.149924     -898.219239  0.000295 -5.774813  0.001026
   scf:    9     -898.149924     -898.149924     -898.219239  0.000128 -5.775465  0.000474

SCF Convergence by DM+H criterion
max |DM_out - DM_in|         :     0.0001284015
max |H_out - H_in|      (eV) :     0.0004737285
SCF cycle converged after 9 iterations

Using DM_out to compute the final energy and forces
No. of atoms with KB's overlaping orbs in proc 0. Max # of overlaps:       4      22

siesta: E_KS(eV) =             -898.1499

siesta: Atomic forces (eV/Ang):
----------------------------------------
   Tot   -0.000154    0.000019    0.000112
----------------------------------------
   Max    2.719338
   Res    1.359544    sqrt( Sum f_i^2 / 3N )
----------------------------------------
   Max    2.719338    constrained

Stress tensor Voigt[x,y,z,yz,xz,xy] (kbar):       -3.54       -0.34       -0.03        0.04        0.66        0.39
(Free)E + p*V (eV/cell)     -897.4037
Target enthalpy (eV/cell)     -898.2192

siesta: Stress tensor (static) (eV/Ang**3):
         0.000514    0.000278    0.000616
         0.000278    0.000054    0.000087
         0.000616    0.000087    0.000138

siesta: Pressure (static):         -0.37704253  kBar

siesta: Stress tensor (total) (eV/Ang**3):
        -0.002212    0.000244    0.000413
         0.000244   -0.000213    0.000028
         0.000413    0.000028   -0.000022

siesta: Pressure (total):          1.30657135  kBar

siesta: Temp_ion =    3695.625 K

                     ====================================
                        Begin MD step =      6
                     ====================================

outcell: Unit cell vectors (Ang):
       10.000004    0.000000    0.000000
        0.000000   10.000004    0.000000
        0.000000    0.000000   10.000004

outcell: Cell vector modules (Ang)   :   10.000004   10.000004   10.000004
outcell: Cell angles (23,13,12) (deg):     90.0000     90.0000     90.0000
outcell: Cell volume (Ang**3)        :   1000.0012
<dSpData1D:S at geom step 6
  <sparsity:sparsity for geom step 6
    nrows_g=26 nrows=26 sparsity=1.0000 nnzs=676, refcount: 7>
  <dData1D:(new from dSpData1D) n=676, refcount: 1>
refcount: 1>
new_DM -- step:     6
Re-using DM from previous geometries...
Number of DMs in history: 1
 DM extrapolation coefficients: 
1   1.00000
New DM after history re-use:
<dSpData2D:SpM extrapolated using coords
  <sparsity:sparsity for geom step 6
    nrows_g=26 nrows=26 sparsity=1.0000 nnzs=676, refcount: 9>
  <dData2D:(temp array for extrapolation) n=676 m=1, refcount: 1>
refcount: 1>
No. of atoms with KB's overlaping orbs in proc 0. Max # of overlaps:       4      22

InitMesh: MESH = 90 x 90 x 90 = 729000
InitMesh: Mesh cutoff (required, used) =   200.000   223.865 Ry
New grid distribution [1]: sub = 2

        iscf     Eharris(eV)        E_KS(eV)     FreeEng(eV)     dDmax    Ef(eV) dHmax(eV)
   scf:    1     -898.056975     -898.124356     -898.193668  0.012583 -5.711173  0.073804
   scf:    2     -898.109343     -898.119691     -898.188609  0.049984 -5.772425  0.079967
   scf:    3     -898.126049     -898.123790     -898.193047  0.028630 -5.745049  0.047452
   scf:    4     -898.124277     -898.124451     -898.193765  0.019485 -5.758840  0.019396
   scf:    5     -898.124447     -898.124470     -898.193784  0.003695 -5.759610  0.005877
   scf:    6     -898.124477     -898.124474     -898.193789  0.000903 -5.761177  0.004691
   scf:    7     -898.124479     -898.124477     -898.193792  0.000661 -5.765376  0.000356
   scf:    8     -898.124477     -898.124477     -898.193792  0.000196 -5.765453  0.000200

SCF Convergence by DM+H criterion
max |DM_out - DM_in|         :     0.0001964087
max |H_out - H_in|      (eV) :     0.0002004323
SCF cycle converged after 8 iterations

Using DM_out to compute the final energy and forces
No. of atoms with KB's overlaping orbs in proc 0. Max # of overlaps:       4      22

siesta: E_KS(eV) =             -898.1245

siesta: Atomic forces (eV/Ang):
----------------------------------------
   Tot   -0.001308   -0.000123    0.000030
----------------------------------------
   Max    2.764891
   Res    1.425817    sqrt( Sum f_i^2 / 3N )
----------------------------------------
   Max    2.764891    constrained

Stress tensor Voigt[x,y,z,yz,xz,xy] (kbar):       -3.44       -0.28        0.13        0.15        1.09        0.55
(Free)E + p*V (eV/cell)     -897.4470
Target enthalpy (eV/cell)     -898.1938

siesta: Stress tensor (static) (eV/Ang**3):
         0.000361    0.000312    0.000740
         0.000313    0.000072    0.000124
         0.000740    0.000124    0.000193

siesta: Pressure (static):         -0.33422388  kBar

siesta: Stress tensor (total) (eV/Ang**3):
        -0.002145    0.000343    0.000679
         0.000343   -0.000176    0.000096
         0.000679    0.000096    0.000080

siesta: Pressure (total):          1.19648271  kBar

siesta: Temp_ion =    3633.136 K

                     ====================================
                        Begin MD step =      7
                     ====================================

outcell: Unit cell vectors (Ang):
       10.000004    0.000000    0.000000
        0.000000   10.000004    0.000000
        0.000000    0.000000   10.000004

outcell: Cell vector modules (Ang)   :   10.000004   10.000004   10.000004
outcell: Cell angles (23,13,12) (deg):     90.0000     90.0000     90.0000
outcell: Cell volume (Ang**3)        :   1000.0012
<dSpData1D:S at geom step 7
  <sparsity:sparsity for geom step 7
    nrows_g=26 nrows=26 sparsity=1.0000 nnzs=676, refcount: 7>
  <dData1D:(new from dSpData1D) n=676, refcount: 1>
refcount: 1>
new_DM -- step:     7
Re-using DM from previous geometries...
Number of DMs in history: 1
 DM extrapolation coefficients: 
1   1.00000
New DM after history re-use:
<dSpData2D:SpM extrapolated using coords
  <sparsity:sparsity for geom step 7
    nrows_g=26 nrows=26 sparsity=1.0000 nnzs=676, refcount: 9>
  <dData2D:(temp array for extrapolation) n=676 m=1, refcount: 1>
refcount: 1>
Note: For starting DM, Qtot, Tr[D*S] =         14.00000000         14.02736548
No. of atoms with KB's overlaping orbs in proc 0. Max # of overlaps:       4      22

InitMesh: MESH = 90 x 90 x 90 = 729000
InitMesh: Mesh cutoff (required, used) =   200.000   223.865 Ry
New grid distribution [1]: sub = 2

        iscf     Eharris(eV)        E_KS(eV)     FreeEng(eV)     dDmax    Ef(eV) dHmax(eV)
   scf:    1     -898.373544     -898.245906     -898.315220  0.012811 -6.026111  0.313297
   scf:    2     -898.239023     -898.244039     -898.313224  0.029440 -5.747257  0.155438
   scf:    3     -898.246704     -898.245532     -898.314800  0.010384 -5.797466  0.106190
   scf:    4     -898.244616     -898.246061     -898.315345  0.026951 -5.781685  0.038438
   scf:    5     -898.246428     -898.246469     -898.315783  0.012907 -5.775291  0.017502
   scf:    6     -898.246474     -898.246478     -898.315792  0.002119 -5.779328  0.013190
   scf:    7     -898.246505     -898.246496     -898.315811  0.001228 -5.767922  0.001187
   scf:    8     -898.246496     -898.246496     -898.315811  0.000217 -5.767647  0.000829

SCF Convergence by DM+H criterion
max |DM_out - DM_in|         :     0.0002173877
max |H_out - H_in|      (eV) :     0.0008285073
SCF cycle converged after 8 iterations

Using DM_out to compute the final energy and forces
No. of atoms with KB's overlaping orbs in proc 0. Max # of overlaps:       4      22

siesta: E_KS(eV) =             -898.2465

siesta: Atomic forces (eV/Ang):
----------------------------------------
   Tot   -0.000328   -0.000012   -0.000474
----------------------------------------
   Max    2.252141
   Res    1.261427    sqrt( Sum f_i^2 / 3N )
----------------------------------------
   Max    2.252141    constrained

Stress tensor Voigt[x,y,z,yz,xz,xy] (kbar):       -4.44       -0.25        0.22        0.22        1.15        0.48
(Free)E + p*V (eV/cell)     -897.3849
Target enthalpy (eV/cell)     -898.3158

siesta: Stress tensor (static) (eV/Ang**3):
        -0.000246    0.000231    0.000669
         0.000231    0.000071    0.000130
         0.000669    0.000130    0.000200

siesta: Pressure (static):         -0.01326877  kBar

siesta: Stress tensor (total) (eV/Ang**3):
        -0.002772    0.000299    0.000716
         0.000299   -0.000159    0.000136
         0.000715    0.000136    0.000138

siesta: Pressure (total):          1.49155529  kBar

siesta: Temp_ion =    3930.876 K

                     ====================================
                        Begin MD step =      8
                     ====================================

outcell: Unit cell vectors (Ang):
       10.000004    0.000000    0.000000
        0.000000   10.000004    0.000000
        0.000000    0.000000   10.000004

outcell: Cell vector modules (Ang)   :   10.000004   10.000004   10.000004
outcell: Cell angles (23,13,12) (deg):     90.0000     90.0000     90.0000
outcell: Cell volume (Ang**3)        :   1000.0012
<dSpData1D:S at geom step 8
  <sparsity:sparsity for geom step 8
    nrows_g=26 nrows=26 sparsity=1.0000 nnzs=676, refcount: 7>
  <dData1D:(new from dSpData1D) n=676, refcount: 1>
refcount: 1>
new_DM -- step:     8
Re-using DM from previous geometries...
Number of DMs in history: 1
 DM extrapolation coefficients: 
1   1.00000
New DM after history re-use:
<dSpData2D:SpM extrapolated using coords
  <sparsity:sparsity for geom step 8
    nrows_g=26 nrows=26 sparsity=1.0000 nnzs=676, refcount: 9>
  <dData2D:(temp array for extrapolation) n=676 m=1, refcount: 1>
refcount: 1>
Note: For starting DM, Qtot, Tr[D*S] =         14.00000000         14.05183260
No. of atoms with KB's overlaping orbs in proc 0. Max # of overlaps:       4      22

InitMesh: MESH = 90 x 90 x 90 = 729000
InitMesh: Mesh cutoff (required, used) =   200.000   223.865 Ry
New grid distribution [1]: sub = 2

        iscf     Eharris(eV)        E_KS(eV)     FreeEng(eV)     dDmax    Ef(eV) dHmax(eV)
   scf:    1     -898.666846     -898.403803     -898.473117  0.019557 -6.275718  0.619201
   scf:    2     -898.384777     -898.399132     -898.468346  0.026628 -5.738372  0.336946
   scf:    3     -898.407109     -898.403540     -898.472823  0.010648 -5.854885  0.236613
   scf:    4     -898.403266     -898.405399     -898.474645  0.033495 -5.804736  0.043258
   scf:    5     -898.405941     -898.406203     -898.475517  0.022684 -5.797631  0.036313
   scf:    6     -898.406295     -898.406263     -898.475577  0.002805 -5.801270  0.028269
   scf:    7     -898.406370     -898.406331     -898.475646  0.000848 -5.780937  0.001954
   scf:    8     -898.406331     -898.406331     -898.475646  0.000223 -5.780704  0.001444
   scf:    9     -898.406330     -898.406331     -898.475645  0.000361 -5.780075  0.000667
   scf:   10     -898.406331     -898.406331     -898.475645  0.000197 -5.779812  0.000528

SCF Convergence by DM+H criterion
max |DM_out - DM_in|         :     0.0001973886
max |H_out - H_in|      (eV) :     0.0005281469
SCF cycle converged after 10 iterations

Using DM_out to compute the final energy and forces
No. of atoms with KB's overlaping orbs in proc 0. Max # of overlaps:       4      22

siesta: E_KS(eV) =             -898.4063

siesta: Atomic forces (eV/Ang):
----------------------------------------
   Tot    0.001268    0.000177   -0.000459
----------------------------------------
   Max    1.813251
   Res    0.825864    sqrt( Sum f_i^2 / 3N )
----------------------------------------
   Max    1.813251    constrained

Stress tensor Voigt[x,y,z,yz,xz,xy] (kbar):       -6.68       -0.31        0.11        0.15        0.59        0.04
(Free)E + p*V (eV/cell)     -897.0440
Target enthalpy (eV/cell)     -898.4756

siesta: Stress tensor (static) (eV/Ang**3):
        -0.001366   -0.000031    0.000291
        -0.000031    0.000023    0.000063
         0.000291    0.000063    0.000097

siesta: Pressure (static):          0.66554427  kBar

siesta: Stress tensor (total) (eV/Ang**3):
        -0.004170    0.000022    0.000367
         0.000022   -0.000196    0.000094
         0.000367    0.000094    0.000071

siesta: Pressure (total):          2.29369036  kBar

siesta: Temp_ion =    4302.087 K

                     ====================================
                        Begin MD step =      9
                     ====================================

outcell: Unit cell vectors (Ang):
       10.000004    0.000000    0.000000
        0.000000   10.000004    0.000000
        0.000000    0.000000   10.000004

outcell: Cell vector modules (Ang)   :   10.000004   10.000004   10.000004
outcell: Cell angles (23,13,12) (deg):     90.0000     90.0000     90.0000
outcell: Cell volume (Ang**3)        :   1000.0012
<dSpData1D:S at geom step 9
  <sparsity:sparsity for geom step 9
    nrows_g=26 nrows=26 sparsity=.9882 nnzs=668, refcount: 7>
  <dData1D:(new from dSpData1D) n=668, refcount: 1>
refcount: 1>
new_DM -- step:     9
Re-using DM from previous geometries...
Number of DMs in history: 1
 DM extrapolation coefficients: 
1   1.00000
New DM after history re-use:
<dSpData2D:SpM extrapolated using coords
  <sparsity:sparsity for geom step 9
    nrows_g=26 nrows=26 sparsity=.9882 nnzs=668, refcount: 9>
  <dData2D:(temp array for extrapolation) n=668 m=1, refcount: 1>
refcount: 1>
Note: For starting DM, Qtot, Tr[D*S] =         14.00000000         14.05507655
No. of atoms with KB's overlaping orbs in proc 0. Max # of overlaps:       4      22

InitMesh: MESH = 90 x 90 x 90 = 729000
InitMesh: Mesh cutoff (required, used) =   200.000   223.865 Ry
New grid distribution [1]: sub = 2

        iscf     Eharris(eV)        E_KS(eV)     FreeEng(eV)     dDmax    Ef(eV) dHmax(eV)
   scf:    1     -898.670127     -898.379150     -898.448462  0.023130 -6.332509  0.680518
   scf:    2     -898.335177     -898.367128     -898.436041  0.060309 -5.756049  0.468898
   scf:    3     -898.385568     -898.377597     -898.446799  0.024681 -5.907995  0.325131
   scf:    4     -898.372954     -898.380038     -898.449155  0.057982 -5.837102  0.071256
   scf:    5     -898.381912     -898.382405     -898.451718  0.033431 -5.822634  0.043623
   scf:    6     -898.382486     -898.382464     -898.451779  0.003720 -5.829330  0.037183
   scf:    7     -898.382651     -898.382579     -898.451894  0.001158 -5.804987  0.002260
   scf:    8     -898.382580     -898.382580     -898.451894  0.000096 -5.804545  0.002433
   scf:    9     -898.382578     -898.382579     -898.451894  0.000549 -5.804210  0.001668
   scf:   10     -898.382579     -898.382579     -898.451894  0.000065 -5.804168  0.001274
   scf:   11     -898.382580     -898.382580     -898.451894  0.000324 -5.804034  0.001021
   scf:   12     -898.382579     -898.382580     -898.451894  0.000134 -5.803919  0.000742

SCF Convergence by DM+H criterion
max |DM_out - DM_in|         :     0.0001340513
max |H_out - H_in|      (eV) :     0.0007420468
SCF cycle converged after 12 iterations

Using DM_out to compute the final energy and forces
No. of atoms with KB's overlaping orbs in proc 0. Max # of overlaps:       4      22

siesta: E_KS(eV) =             -898.3826

siesta: Atomic forces (eV/Ang):
----------------------------------------
   Tot   -0.002255   -0.000338   -0.000581
----------------------------------------
   Max    1.733855
   Res    0.982444    sqrt( Sum f_i^2 / 3N )
----------------------------------------
   Max    1.733855    constrained

Stress tensor Voigt[x,y,z,yz,xz,xy] (kbar):       -9.56       -0.53       -0.36       -0.16       -0.67       -0.83
(Free)E + p*V (eV/cell)     -896.2790
Target enthalpy (eV/cell)     -898.4519

siesta: Stress tensor (static) (eV/Ang**3):
        -0.002863   -0.000521   -0.000478
        -0.000521   -0.000110   -0.000137
        -0.000478   -0.000137   -0.000209

siesta: Pressure (static):          1.69953392  kBar

siesta: Stress tensor (total) (eV/Ang**3):
        -0.005969   -0.000515   -0.000420
        -0.000515   -0.000328   -0.000097
        -0.000420   -0.000097   -0.000222

siesta: Pressure (total):          3.48143333  kBar

siesta: Temp_ion =    4230.213 K

                     ====================================
                        Begin MD step =     10
                     ====================================

outcell: Unit cell vectors (Ang):
       10.000004    0.000000    0.000000
        0.000000   10.000004    0.000000
        0.000000    0.000000   10.000004

outcell: Cell vector modules (Ang)   :   10.000004   10.000004   10.000004
outcell: Cell angles (23,13,12) (deg):     90.0000     90.0000     90.0000
outcell: Cell volume (Ang**3)        :   1000.0012
Gamma-point calculation with multiply-connected orbital pairs
Folding of H and S implicitly performed
<dSpData1D:S at geom step 10
  <sparsity:sparsity for geom step 10
    nrows_g=26 nrows=26 sparsity=1.0000 nnzs=676, refcount: 7>
  <dData1D:(new from dSpData1D) n=676, refcount: 1>
refcount: 1>
new_DM -- step:    10
Re-using DM from previous geometries...
Number of DMs in history: 1
 DM extrapolation coefficients: 
1   1.00000
New DM after history re-use:
<dSpData2D:SpM extrapolated using coords
  <sparsity:sparsity for geom step 10
    nrows_g=26 nrows=26 sparsity=1.0000 nnzs=676, refcount: 9>
  <dData2D:(temp array for extrapolation) n=676 m=1, refcount: 1>
refcount: 1>
Note: For starting DM, Qtot, Tr[D*S] =         14.00000000         14.02790984
No. of atoms with KB's overlaping orbs in proc 0. Max # of overlaps:       4      26

InitMesh: MESH = 90 x 90 x 90 = 729000
InitMesh: Mesh cutoff (required, used) =   200.000   223.865 Ry
New grid distribution [1]: sub = 2

        iscf     Eharris(eV)        E_KS(eV)     FreeEng(eV)     dDmax    Ef(eV) dHmax(eV)
   scf:    1     -898.416208     -898.200678     -898.269991  0.014309 -6.112709  0.379792
   scf:    2     -898.176060     -898.193785     -898.262908  0.040700 -5.807656  0.323028
   scf:    3     -898.204899     -898.200365     -898.269641  0.020668 -5.917167  0.210537
   scf:    4     -898.198250     -898.201189     -898.270416  0.041073 -5.862104  0.032775
   scf:    5     -898.202022     -898.202186     -898.271500  0.026102 -5.852600  0.026783
   scf:    6     -898.202223     -898.202208     -898.271523  0.001942 -5.856548  0.022487
   scf:    7     -898.202277     -898.202250     -898.271565  0.000698 -5.839304  0.001306
   scf:    8     -898.202250     -898.202250     -898.271565  0.000025 -5.839089  0.001329
   scf:    9     -898.202250     -898.202250     -898.271565  0.000250 -5.838742  0.000302

SCF Convergence by DM+H criterion
max |DM_out - DM_in|         :     0.0002497793
max |H_out - H_in|      (eV) :     0.0003024866
SCF cycle converged after 9 iterations

Using DM_out to compute the final energy and forces
No. of atoms with KB's overlaping orbs in proc 0. Max # of overlaps:       4      26

siesta: E_KS(eV) =             -898.2023

siesta: Atomic forces (eV/Ang):
----------------------------------------
   Tot    0.001767    0.000050   -0.001305
----------------------------------------
   Max    3.908353
   Res    1.898119    sqrt( Sum f_i^2 / 3N )
----------------------------------------
   Max    3.908353    constrained

Stress tensor Voigt[x,y,z,yz,xz,xy] (kbar):      -10.48       -0.82       -1.03       -0.60       -1.82       -1.56
(Free)E + p*V (eV/cell)     -895.7064
Target enthalpy (eV/cell)     -898.2716

siesta: Stress tensor (static) (eV/Ang**3):
        -0.003503   -0.000962   -0.001216
        -0.000962   -0.000287   -0.000411
        -0.001216   -0.000411   -0.000625

siesta: Pressure (static):          2.35777879  kBar

siesta: Stress tensor (total) (eV/Ang**3):
        -0.006543   -0.000972   -0.001137
        -0.000972   -0.000511   -0.000372
        -0.001137   -0.000372   -0.000642

siesta: Pressure (total):          4.10990850  kBar

siesta: Temp_ion =    3866.601 K

                     ====================================
                        Begin MD step =     11
                     ====================================

outcell: Unit cell vectors (Ang):
       10.000004    0.000000    0.000000
        0.000000   10.000004    0.000000
        0.000000    0.000000   10.000004

outcell: Cell vector modules (Ang)   :   10.000004   10.000004   10.000004
outcell: Cell angles (23,13,12) (deg):     90.0000     90.0000     90.0000
outcell: Cell volume (Ang**3)        :   1000.0012
Gamma-point calculation with multiply-connected orbital pairs
Folding of H and S implicitly performed
<dSpData1D:S at geom step 11
  <sparsity:sparsity for geom step 11
    nrows_g=26 nrows=26 sparsity=1.0000 nnzs=676, refcount: 7>
  <dData1D:(new from dSpData1D) n=676, refcount: 1>
refcount: 1>
new_DM -- step:    11
Re-using DM from previous geometries...
Number of DMs in history: 1
 DM extrapolation coefficients: 
1   1.00000
New DM after history re-use:
<dSpData2D:SpM extrapolated using coords
  <sparsity:sparsity for geom step 11
    nrows_g=26 nrows=26 sparsity=1.0000 nnzs=676, refcount: 9>
  <dData2D:(temp array for extrapolation) n=676 m=1, refcount: 1>
refcount: 1>
No. of atoms with KB's overlaping orbs in proc 0. Max # of overlaps:       4      26

InitMesh: MESH = 90 x 90 x 90 = 729000
InitMesh: Mesh cutoff (required, used) =   200.000   223.865 Ry
New grid distribution [1]: sub = 2

        iscf     Eharris(eV)        E_KS(eV)     FreeEng(eV)     dDmax    Ef(eV) dHmax(eV)
   scf:    1     -898.430718     -898.329765     -898.399074  0.012350 -5.768188  0.116565
   scf:    2     -898.309130     -898.323351     -898.392120  0.066662 -5.882949  0.077660
   scf:    3     -898.331186     -898.327920     -898.397070  0.027269 -5.856216  0.070500
   scf:    4     -898.329794     -898.329922     -898.399236  0.034783 -5.885700  0.017575
   scf:    5     -898.329688     -898.329862     -898.399171  0.007998 -5.877772  0.018924
   scf:    6     -898.329974     -898.329942     -898.399257  0.005286 -5.883654  0.009119
   scf:    7     -898.329952     -898.329950     -898.399265  0.001716 -5.884717  0.000606
   scf:    8     -898.329950     -898.329950     -898.399265  0.000135 -5.884837  0.000432

SCF Convergence by DM+H criterion
max |DM_out - DM_in|         :     0.0001350174
max |H_out - H_in|      (eV) :     0.0004324309
SCF cycle converged after 8 iterations

Using DM_out to compute the final energy and forces
No. of atoms with KB's overlaping orbs in proc 0. Max # of overlaps:       4      26

siesta: E_KS(eV) =             -898.3300

siesta: Atomic forces (eV/Ang):
----------------------------------------
   Tot    0.001065   -0.000272    0.000588
----------------------------------------
   Max    2.585525
   Res    1.300345    sqrt( Sum f_i^2 / 3N )
----------------------------------------
   Max    2.585525    constrained

Stress tensor Voigt[x,y,z,yz,xz,xy] (kbar):       -7.41       -0.83       -1.06       -0.62       -1.34       -1.17
(Free)E + p*V (eV/cell)     -896.4647
Target enthalpy (eV/cell)     -898.3993

siesta: Stress tensor (static) (eV/Ang**3):
        -0.001973   -0.000715   -0.000948
        -0.000715   -0.000258   -0.000379
        -0.000948   -0.000379   -0.000574

siesta: Pressure (static):          1.49802936  kBar

siesta: Stress tensor (total) (eV/Ang**3):
        -0.004628   -0.000729   -0.000838
        -0.000729   -0.000516   -0.000384
        -0.000838   -0.000384   -0.000660

siesta: Pressure (total):          3.09955311  kBar

siesta: Temp_ion =    4125.532 K

                     ====================================
                        Begin MD step =     12
                     ====================================

outcell: Unit cell vectors (Ang):
       10.000004    0.000000    0.000000
        0.000000   10.000004    0.000000
        0.000000    0.000000   10.000004

outcell: Cell vector modules (Ang)   :   10.000004   10.000004   10.000004
outcell: Cell angles (23,13,12) (deg):     90.0000     90.0000     90.0000
outcell: Cell volume (Ang**3)        :   1000.0012
<dSpData1D:S at geom step 12
  <sparsity:sparsity for geom step 12
    nrows_g=26 nrows=26 sparsity=1.0000 nnzs=676, refcount: 7>
  <dData1D:(new from dSpData1D) n=676, refcount: 1>
refcount: 1>
new_DM -- step:    12
Re-using DM from previous geometries...
Number of DMs in history: 1
 DM extrapolation coefficients: 
1   1.00000
New DM after history re-use:
<dSpData2D:SpM extrapolated using coords
  <sparsity:sparsity for geom step 12
    nrows_g=26 nrows=26 sparsity=1.0000 nnzs=676, refcount: 9>
  <dData2D:(temp array for extrapolation) n=676 m=1, refcount: 1>
refcount: 1>
Note: For starting DM, Qtot, Tr[D*S] =         14.00000000         13.95524715
No. of atoms with KB's overlaping orbs in proc 0. Max # of overlaps:       4      26

InitMesh: MESH = 90 x 90 x 90 = 729000
InitMesh: Mesh cutoff (required, used) =   200.000   223.865 Ry
New grid distribution [1]: sub = 2

        iscf     Eharris(eV)        E_KS(eV)     FreeEng(eV)     dDmax    Ef(eV) dHmax(eV)
   scf:    1     -898.465331     -898.473471     -898.542771  0.022653 -5.530081  0.494189
   scf:    2     -898.408263     -898.453398     -898.521329  0.091280 -5.964098  0.321796
   scf:    3     -898.477994     -898.467593     -898.536490  0.037555 -5.860983  0.254380
   scf:    4     -898.462648     -898.472209     -898.541338  0.075619 -5.922653  0.089336
   scf:    5     -898.471561     -898.474084     -898.543372  0.041662 -5.924570  0.025058
   scf:    6     -898.474580     -898.474458     -898.543772  0.010214 -5.933697  0.011606
   scf:    7     -898.474500     -898.474484     -898.543799  0.001451 -5.941400  0.002255
   scf:    8     -898.474488     -898.474487     -898.543802  0.001066 -5.940423  0.001846
   scf:    9     -898.474487     -898.474487     -898.543802  0.000363 -5.941366  0.001702
   scf:   10     -898.474487     -898.474487     -898.543802  0.000051 -5.941383  0.001586
   scf:   11     -898.474487     -898.474487     -898.543802  0.000227 -5.941793  0.000150

SCF Convergence by DM+H criterion
max |DM_out - DM_in|         :     0.0002273982
max |H_out - H_in|      (eV) :     0.0001499006
SCF cycle converged after 11 iterations

Using DM_out to compute the final energy and forces
No. of atoms with KB's overlaping orbs in proc 0. Max # of overlaps:       4      26

siesta: E_KS(eV) =             -898.4745

siesta: Atomic forces (eV/Ang):
----------------------------------------
   Tot   -0.001659   -0.001448   -0.000907
----------------------------------------
   Max    0.046729
   Res    0.027291    sqrt( Sum f_i^2 / 3N )
----------------------------------------
   Max    0.046729    constrained

Stress tensor Voigt[x,y,z,yz,xz,xy] (kbar):       -3.65       -0.54       -0.41       -0.20       -0.06       -0.20
(Free)E + p*V (eV/cell)     -897.5869
Target enthalpy (eV/cell)     -898.5438

siesta: Stress tensor (static) (eV/Ang**3):
         0.000299   -0.000000   -0.000002
        -0.000000    0.000010    0.000010
        -0.000002    0.000010    0.000020

siesta: Pressure (static):         -0.17561864  kBar

siesta: Stress tensor (total) (eV/Ang**3):
        -0.002278   -0.000125   -0.000039
        -0.000125   -0.000335   -0.000122
        -0.000039   -0.000122   -0.000258

siesta: Pressure (total):          1.53315279  kBar

siesta: Temp_ion =    4460.864 K

                     ====================================
                        Begin MD step =     13
                     ====================================

outcell: Unit cell vectors (Ang):
       10.000004    0.000000    0.000000
        0.000000   10.000004    0.000000
        0.000000    0.000000   10.000004

outcell: Cell vector modules (Ang)   :   10.000004   10.000004   10.000004
outcell: Cell angles (23,13,12) (deg):     90.0000     90.0000     90.0000
outcell: Cell volume (Ang**3)        :   1000.0012
<dSpData1D:S at geom step 13
  <sparsity:sparsity for geom step 13
    nrows_g=26 nrows=26 sparsity=1.0000 nnzs=676, refcount: 7>
  <dData1D:(new from dSpData1D) n=676, refcount: 1>
refcount: 1>
new_DM -- step:    13
Re-using DM from previous geometries...
Number of DMs in history: 1
 DM extrapolation coefficients: 
1   1.00000
New DM after history re-use:
<dSpData2D:SpM extrapolated using coords
  <sparsity:sparsity for geom step 13
    nrows_g=26 nrows=26 sparsity=1.0000 nnzs=676, refcount: 9>
  <dData2D:(temp array for extrapolation) n=676 m=1, refcount: 1>
refcount: 1>
Note: For starting DM, Qtot, Tr[D*S] =         14.00000000         13.94760805
No. of atoms with KB's overlaping orbs in proc 0. Max # of overlaps:       4      26

InitMesh: MESH = 90 x 90 x 90 = 729000
InitMesh: Mesh cutoff (required, used) =   200.000   223.865 Ry
New grid distribution [1]: sub = 2

        iscf     Eharris(eV)        E_KS(eV)     FreeEng(eV)     dDmax    Ef(eV) dHmax(eV)
   scf:    1     -898.295889     -898.371450     -898.440738  0.024082 -5.514654  0.588707
   scf:    2     -898.263987     -898.338391     -898.405256  0.115977 -6.037021  0.384810
   scf:    3     -898.378705     -898.361622     -898.430177  0.046661 -5.916016  0.288160
   scf:    4     -898.357121     -898.370401     -898.439484  0.090484 -5.982226  0.102712
   scf:    5     -898.359376     -898.370296     -898.439392  0.063052 -5.976185  0.049950
   scf:    6     -898.373801     -898.373101     -898.442414  0.028225 -5.992718  0.015668
   scf:    7     -898.373213     -898.373167     -898.442481  0.001938 -6.003625  0.003923
   scf:    8     -898.373193     -898.373191     -898.442505  0.003023 -6.002129  0.002005
   scf:    9     -898.373192     -898.373192     -898.442506  0.000412 -6.002963  0.002214
   scf:   10     -898.373191     -898.373192     -898.442506  0.000283 -6.002915  0.001875
   scf:   11     -898.373192     -898.373192     -898.442506  0.000029 -6.003192  0.001248
   scf:   12     -898.373192     -898.373192     -898.442506  0.000050 -6.003258  0.001168
   scf:   13     -898.373192     -898.373192     -898.442506  0.000253 -6.003382  0.000435

SCF Convergence by DM+H criterion
max |DM_out - DM_in|         :     0.0002534169
max |H_out - H_in|      (eV) :     0.0004350772
SCF cycle converged after 13 iterations

Using DM_out to compute the final energy and forces
No. of atoms with KB's overlaping orbs in proc 0. Max # of overlaps:       4      26

siesta: E_KS(eV) =             -898.3732

siesta: Atomic forces (eV/Ang):
----------------------------------------
   Tot   -0.000318   -0.000023   -0.000425
----------------------------------------
   Max    1.445918
   Res    0.830618    sqrt( Sum f_i^2 / 3N )
----------------------------------------
   Max    1.445918    constrained

Stress tensor Voigt[x,y,z,yz,xz,xy] (kbar):       -1.17       -0.17        0.39        0.33        0.96        0.63
(Free)E + p*V (eV/cell)     -898.2457
Target enthalpy (eV/cell)     -898.4425

siesta: Stress tensor (static) (eV/Ang**3):
         0.001938    0.000605    0.000754
         0.000605    0.000292    0.000413
         0.000754    0.000413    0.000640

siesta: Pressure (static):         -1.53233903  kBar

siesta: Stress tensor (total) (eV/Ang**3):
        -0.000728    0.000396    0.000597
         0.000396   -0.000105    0.000204
         0.000597    0.000204    0.000243

siesta: Pressure (total):          0.31532497  kBar

siesta: Temp_ion =    4242.320 K

                     ====================================
                        Begin MD step =     14
                     ====================================

outcell: Unit cell vectors (Ang):
       10.000004    0.000000    0.000000
        0.000000   10.000004    0.000000
        0.000000    0.000000   10.000004

outcell: Cell vector modules (Ang)   :   10.000004   10.000004   10.000004
outcell: Cell angles (23,13,12) (deg):     90.0000     90.0000     90.0000
outcell: Cell volume (Ang**3)        :   1000.0012
<dSpData1D:S at geom step 14
  <sparsity:sparsity for geom step 14
    nrows_g=26 nrows=26 sparsity=1.0000 nnzs=676, refcount: 7>
  <dData1D:(new from dSpData1D) n=676, refcount: 1>
refcount: 1>
new_DM -- step:    14
Re-using DM from previous geometries...
Number of DMs in history: 1
 DM extrapolation coefficients: 
1   1.00000
New DM after history re-use:
<dSpData2D:SpM extrapolated using coords
  <sparsity:sparsity for geom step 14
    nrows_g=26 nrows=26 sparsity=1.0000 nnzs=676, refcount: 9>
  <dData2D:(temp array for extrapolation) n=676 m=1, refcount: 1>
refcount: 1>
Note: For starting DM, Qtot, Tr[D*S] =         14.00000000         13.96443164
No. of atoms with KB's overlaping orbs in proc 0. Max # of overlaps:       4      26

InitMesh: MESH = 90 x 90 x 90 = 729000
InitMesh: Mesh cutoff (required, used) =   200.000   223.865 Ry
New grid distribution [1]: sub = 2

        iscf     Eharris(eV)        E_KS(eV)     FreeEng(eV)     dDmax    Ef(eV) dHmax(eV)
   scf:    1     -898.188758     -898.223221     -898.292498  0.016669 -5.725886  0.371203
   scf:    2     -898.107589     -898.187227     -898.253499  0.139232 -6.087981  0.155172
   scf:    3     -898.228656     -898.210892     -898.279153  0.051268 -6.017456  0.092949
   scf:    4     -898.222332     -898.224130     -898.293433  0.081738 -6.060696  0.014416
   scf:    5     -898.223682     -898.224072     -898.293383  0.012116 -6.056421  0.015121
   scf:    6     -898.224256     -898.224183     -898.293497  0.003460 -6.062373  0.004364
   scf:    7     -898.224158     -898.224212     -898.293522  0.005799 -6.061764  0.003530
   scf:    8     -898.224202     -898.224218     -898.293532  0.003224 -6.062333  0.001752
   scf:    9     -898.224219     -898.224218     -898.293532  0.000169 -6.062435  0.001720
   scf:   10     -898.224221     -898.224221     -898.293534  0.000863 -6.063864  0.000538
   scf:   11     -898.224221     -898.224221     -898.293534  0.000001 -6.063873  0.000532

SCF Convergence by DM+H criterion
max |DM_out - DM_in|         :     0.0000014966
max |H_out - H_in|      (eV) :     0.0005317356
SCF cycle converged after 11 iterations

Using DM_out to compute the final energy and forces
No. of atoms with KB's overlaping orbs in proc 0. Max # of overlaps:       4      26

siesta: E_KS(eV) =             -898.2242

siesta: Atomic forces (eV/Ang):
----------------------------------------
   Tot   -0.000589    0.000360    0.000348
----------------------------------------
   Max    1.925746
   Res    1.192803    sqrt( Sum f_i^2 / 3N )
----------------------------------------
   Max    1.925746    constrained

Stress tensor Voigt[x,y,z,yz,xz,xy] (kbar):        0.38        0.20        1.18        0.84        1.66        1.29
(Free)E + p*V (eV/cell)     -898.6615
Target enthalpy (eV/cell)     -898.2935

siesta: Stress tensor (static) (eV/Ang**3):
         0.002874    0.000961    0.001119
         0.000961    0.000482    0.000671
         0.001119    0.000671    0.001038

siesta: Pressure (static):         -2.34665908  kBar

siesta: Stress tensor (total) (eV/Ang**3):
         0.000240    0.000807    0.001037
         0.000807    0.000127    0.000524
         0.001037    0.000524    0.000737

siesta: Pressure (total):         -0.58951467  kBar

siesta: Temp_ion =    3884.265 K

                     ====================================
                        Begin MD step =     15
                     ====================================

outcell: Unit cell vectors (Ang):
       10.000004    0.000000    0.000000
        0.000000   10.000004    0.000000
        0.000000    0.000000   10.000004

outcell: Cell vector modules (Ang)   :   10.000004   10.000004   10.000004
outcell: Cell angles (23,13,12) (deg):     90.0000     90.0000     90.0000
outcell: Cell volume (Ang**3)        :   1000.0012
<dSpData1D:S at geom step 15
  <sparsity:sparsity for geom step 15
    nrows_g=26 nrows=26 sparsity=1.0000 nnzs=676, refcount: 7>
  <dData1D:(new from dSpData1D) n=676, refcount: 1>
refcount: 1>
new_DM -- step:    15
Re-using DM from previous geometries...
Number of DMs in history: 1
 DM extrapolation coefficients: 
1   1.00000
New DM after history re-use:
<dSpData2D:SpM extrapolated using coords
  <sparsity:sparsity for geom step 15
    nrows_g=26 nrows=26 sparsity=1.0000 nnzs=676, refcount: 9>
  <dData2D:(temp array for extrapolation) n=676 m=1, refcount: 1>
refcount: 1>
No. of atoms with KB's overlaping orbs in proc 0. Max # of overlaps:       4      26

InitMesh: MESH = 90 x 90 x 90 = 729000
InitMesh: Mesh cutoff (required, used) =   200.000   223.865 Ry
New grid distribution [1]: sub = 2

        iscf     Eharris(eV)        E_KS(eV)     FreeEng(eV)     dDmax    Ef(eV) dHmax(eV)
   scf:    1     -898.262232     -898.187081     -898.256360  0.012671 -6.049517  0.153347
   scf:    2     -898.036202     -898.140101     -898.207090  0.136714 -6.112816  0.531805
   scf:    3     -898.195132     -898.187937     -898.257247  0.116946 -6.061444  0.057228
   scf:    4     -898.186725     -898.187843     -898.257105  0.023041 -6.075228  0.055571
   scf:    5     -898.187534     -898.188116     -898.257429  0.021134 -6.081179  0.040202
   scf:    6     -898.188193     -898.188170     -898.257484  0.001229 -6.106693  0.018782
   scf:    7     -898.188273     -898.188257     -898.257569  0.005736 -6.117303  0.001207
   scf:    8     -898.188257     -898.188257     -898.257569  0.000098 -6.117307  0.000983

SCF Convergence by DM+H criterion
max |DM_out - DM_in|         :     0.0000982556
max |H_out - H_in|      (eV) :     0.0009832650
SCF cycle converged after 8 iterations

Using DM_out to compute the final energy and forces
No. of atoms with KB's overlaping orbs in proc 0. Max # of overlaps:       4      26

siesta: E_KS(eV) =             -898.1883

siesta: Atomic forces (eV/Ang):
----------------------------------------
   Tot   -0.000819    0.000664    0.000551
----------------------------------------
   Max    1.913663
   Res    1.297575    sqrt( Sum f_i^2 / 3N )
----------------------------------------
   Max    1.913663    constrained

Stress tensor Voigt[x,y,z,yz,xz,xy] (kbar):        1.09        0.46        1.69        1.17        1.90        1.66
(Free)E + p*V (eV/cell)     -898.9307
Target enthalpy (eV/cell)     -898.2576

siesta: Stress tensor (static) (eV/Ang**3):
         0.003287    0.001098    0.001154
         0.001098    0.000562    0.000762
         0.001154    0.000762    0.001183

siesta: Pressure (static):         -2.68730240  kBar

siesta: Stress tensor (total) (eV/Ang**3):
         0.000678    0.001033    0.001186
         0.001033    0.000286    0.000728
         0.001186    0.000728    0.001055

siesta: Pressure (total):         -1.07846225  kBar

siesta: Temp_ion =    3795.838 K

                     ====================================
                        Begin MD step =     16
                     ====================================

outcell: Unit cell vectors (Ang):
       10.000004    0.000000    0.000000
        0.000000   10.000004    0.000000
        0.000000    0.000000   10.000004

outcell: Cell vector modules (Ang)   :   10.000004   10.000004   10.000004
outcell: Cell angles (23,13,12) (deg):     90.0000     90.0000     90.0000
outcell: Cell volume (Ang**3)        :   1000.0012
<dSpData1D:S at geom step 16
  <sparsity:sparsity for geom step 16
    nrows_g=26 nrows=26 sparsity=1.0000 nnzs=676, refcount: 7>
  <dData1D:(new from dSpData1D) n=676, refcount: 1>
refcount: 1>
new_DM -- step:    16
Re-using DM from previous geometries...
Number of DMs in history: 1
 DM extrapolation coefficients: 
1   1.00000
New DM after history re-use:
<dSpData2D:SpM extrapolated using coords
  <sparsity:sparsity for geom step 16
    nrows_g=26 nrows=26 sparsity=1.0000 nnzs=676, refcount: 9>
  <dData2D:(temp array for extrapolation) n=676 m=1, refcount: 1>
refcount: 1>
Note: For starting DM, Qtot, Tr[D*S] =         14.00000000         14.02712197
No. of atoms with KB's overlaping orbs in proc 0. Max # of overlaps:       4      26

InitMesh: MESH = 90 x 90 x 90 = 729000
InitMesh: Mesh cutoff (required, used) =   200.000   223.865 Ry
New grid distribution [1]: sub = 2

        iscf     Eharris(eV)        E_KS(eV)     FreeEng(eV)     dDmax    Ef(eV) dHmax(eV)
   scf:    1     -898.471074     -898.288701     -898.357978  0.014699 -6.381835  0.479265
   scf:    2     -897.893023     -898.166459     -898.233104  0.143210 -6.115226  1.191012
   scf:    3     -898.326038     -898.291811     -898.361091  0.115347 -6.315253  0.283776
   scf:    4     -898.271752     -898.287467     -898.356172  0.072565 -6.203886  0.084403
   scf:    5     -898.291682     -898.289705     -898.358619  0.011179 -6.192617  0.071917
   scf:    6     -898.293852     -898.293664     -898.362972  0.042800 -6.176312  0.021387
   scf:    7     -898.292923     -898.293416     -898.362687  0.010452 -6.157513  0.014493
   scf:    8     -898.293684     -898.293705     -898.363016  0.012232 -6.161301  0.001102
   scf:    9     -898.293707     -898.293706     -898.363016  0.000391 -6.160840  0.000759
   scf:   10     -898.293706     -898.293706     -898.363016  0.000168 -6.160950  0.000627

SCF Convergence by DM+H criterion
max |DM_out - DM_in|         :     0.0001681795
max |H_out - H_in|      (eV) :     0.0006269333
SCF cycle converged after 10 iterations

Using DM_out to compute the final energy and forces
No. of atoms with KB's overlaping orbs in proc 0. Max # of overlaps:       4      26

siesta: E_KS(eV) =             -898.2937

siesta: Atomic forces (eV/Ang):
----------------------------------------
   Tot    0.001669    0.001391    0.001097
----------------------------------------
   Max    1.660281
   Res    1.199209    sqrt( Sum f_i^2 / 3N )
----------------------------------------
   Max    1.660281    constrained

Stress tensor Voigt[x,y,z,yz,xz,xy] (kbar):        0.90        0.47        1.62        1.11        1.50        1.59
(Free)E + p*V (eV/cell)     -898.9849
Target enthalpy (eV/cell)     -898.3630

siesta: Stress tensor (static) (eV/Ang**3):
         0.003263    0.001027    0.000887
         0.001027    0.000515    0.000657
         0.000887    0.000657    0.001031

siesta: Pressure (static):         -2.56853942  kBar

siesta: Stress tensor (total) (eV/Ang**3):
         0.000561    0.000994    0.000934
         0.000994    0.000292    0.000693
         0.000934    0.000693    0.001012

siesta: Pressure (total):         -0.99632534  kBar

siesta: Temp_ion =    4052.368 K

                     ====================================
                        Begin MD step =     17
                     ====================================

outcell: Unit cell vectors (Ang):
       10.000004    0.000000    0.000000
        0.000000   10.000004    0.000000
        0.000000    0.000000   10.000004

outcell: Cell vector modules (Ang)   :   10.000004   10.000004   10.000004
outcell: Cell angles (23,13,12) (deg):     90.0000     90.0000     90.0000
outcell: Cell volume (Ang**3)        :   1000.0012
<dSpData1D:S at geom step 17
  <sparsity:sparsity for geom step 17
    nrows_g=26 nrows=26 sparsity=1.0000 nnzs=676, refcount: 7>
  <dData1D:(new from dSpData1D) n=676, refcount: 1>
refcount: 1>
new_DM -- step:    17
Re-using DM from previous geometries...
Number of DMs in history: 1
 DM extrapolation coefficients: 
1   1.00000
New DM after history re-use:
<dSpData2D:SpM extrapolated using coords
  <sparsity:sparsity for geom step 17
    nrows_g=26 nrows=26 sparsity=1.0000 nnzs=676, refcount: 9>
  <dData2D:(temp array for extrapolation) n=676 m=1, refcount: 1>
refcount: 1>
[...]
InitMesh: Mesh cutoff (required, used) =   200.000   223.865 Ry
New grid distribution [1]: sub = 2

        iscf     Eharris(eV)        E_KS(eV)     FreeEng(eV)     dDmax    Ef(eV) dHmax(eV)
   scf:    1     -897.864685     -898.241143     -898.310455  0.024107 -5.434603  0.739821
   scf:    2     -898.210237     -898.233390     -898.302243  0.055825 -6.099329  0.341170
   scf:    3     -898.246136     -898.240489     -898.309639  0.021093 -5.973715  0.234928
   scf:    4     -898.238472     -898.243321     -898.312534  0.055437 -6.018090  0.064015
   scf:    5     -898.243844     -898.244613     -898.313918  0.031513 -6.021575  0.048079
   scf:    6     -898.244735     -898.244690     -898.314003  0.003837 -6.037699  0.047297
   scf:    7     -898.245059     -898.244926     -898.314240  0.002755 -6.051791  0.002101
   scf:    8     -898.244926     -898.244926     -898.314240  0.000206 -6.051347  0.002555
   scf:    9     -898.244924     -898.244925     -898.314240  0.000463 -6.053174  0.000916
   scf:   10     -898.244926     -898.244926     -898.314240  0.000233 -6.053338  0.000819

SCF Convergence by DM+H criterion
max |DM_out - DM_in|         :     0.0002334222
max |H_out - H_in|      (eV) :     0.0008190311
SCF cycle converged after 10 iterations

Using DM_out to compute the final energy and forces
No. of atoms with KB's overlaping orbs in proc 0. Max # of overlaps:       4      18

siesta: E_KS(eV) =             -898.2449

siesta: Atomic forces (eV/Ang):
----------------------------------------
   Tot   -0.003773    0.005196   -0.004282
----------------------------------------
   Max    2.269892
   Res    1.308400    sqrt( Sum f_i^2 / 3N )
----------------------------------------
   Max    2.269892    constrained

Stress tensor Voigt[x,y,z,yz,xz,xy] (kbar):       -2.30        3.97        1.71       -0.85       -1.81        1.40
(Free)E + p*V (eV/cell)     -899.0183
Target enthalpy (eV/cell)     -898.3142

siesta: Stress tensor (static) (eV/Ang**3):
         0.001145    0.000466   -0.001179
         0.000466    0.002916   -0.000731
        -0.001179   -0.000731    0.001245

siesta: Pressure (static):         -2.83361497  kBar

siesta: Stress tensor (total) (eV/Ang**3):
        -0.001435    0.000872   -0.001130
         0.000872    0.002481   -0.000529
        -0.001130   -0.000529    0.001066

siesta: Pressure (total):         -1.12799229  kBar

siesta: Temp_ion =    3903.855 K

                     ====================================
                        Begin MD step =    198
                     ====================================

outcell: Unit cell vectors (Ang):
       10.000004    0.000000    0.000000
        0.000000   10.000004    0.000000
        0.000000    0.000000   10.000004

outcell: Cell vector modules (Ang)   :   10.000004   10.000004   10.000004
outcell: Cell angles (23,13,12) (deg):     90.0000     90.0000     90.0000
outcell: Cell volume (Ang**3)        :   1000.0012
<dSpData1D:S at geom step 198
  <sparsity:sparsity for geom step 198
    nrows_g=26 nrows=26 sparsity=.7633 nnzs=516, refcount: 7>
  <dData1D:(new from dSpData1D) n=516, refcount: 1>
refcount: 1>
new_DM -- step:   198
Re-using DM from previous geometries...
Number of DMs in history: 1
 DM extrapolation coefficients: 
1   1.00000
New DM after history re-use:
<dSpData2D:SpM extrapolated using coords
  <sparsity:sparsity for geom step 198
    nrows_g=26 nrows=26 sparsity=.7633 nnzs=516, refcount: 9>
  <dData2D:(temp array for extrapolation) n=516 m=1, refcount: 1>
refcount: 1>
Note: For starting DM, Qtot, Tr[D*S] =         14.00000000         13.95919651
No. of atoms with KB's overlaping orbs in proc 0. Max # of overlaps:       4      18

InitMesh: MESH = 90 x 90 x 90 = 729000
InitMesh: Mesh cutoff (required, used) =   200.000   223.865 Ry
New grid distribution [1]: sub = 2

        iscf     Eharris(eV)        E_KS(eV)     FreeEng(eV)     dDmax    Ef(eV) dHmax(eV)
   scf:    1     -897.718315     -898.080343     -898.149652  0.026237 -5.555657  0.541695
   scf:    2     -898.045823     -898.070972     -898.139472  0.085417 -6.045377  0.288515
   scf:    3     -898.084932     -898.078890     -898.147923  0.032014 -5.948872  0.179590
   scf:    4     -898.078197     -898.082173     -898.151430  0.065010 -5.972770  0.063929
   scf:    5     -898.082193     -898.082913     -898.152217  0.028779 -5.976794  0.037758
   scf:    6     -898.083021     -898.083009     -898.152324  0.006938 -5.985826  0.039736
   scf:    7     -898.083246     -898.083159     -898.152474  0.001255 -6.004047  0.002154
   scf:    8     -898.083160     -898.083159     -898.152474  0.000140 -6.004037  0.002201
   scf:    9     -898.083159     -898.083159     -898.152474  0.000529 -6.005259  0.000609
   scf:   10     -898.083160     -898.083159     -898.152474  0.000064 -6.005367  0.000502

SCF Convergence by DM+H criterion
max |DM_out - DM_in|         :     0.0000640441
max |H_out - H_in|      (eV) :     0.0005024851
SCF cycle converged after 10 iterations

Using DM_out to compute the final energy and forces
No. of atoms with KB's overlaping orbs in proc 0. Max # of overlaps:       4      18

siesta: E_KS(eV) =             -898.0832

siesta: Atomic forces (eV/Ang):
----------------------------------------
   Tot   -0.000228    0.003314   -0.002567
----------------------------------------
   Max    2.203150
   Res    1.436263    sqrt( Sum f_i^2 / 3N )
----------------------------------------
   Max    2.203150    constrained

Stress tensor Voigt[x,y,z,yz,xz,xy] (kbar):       -1.12        2.93        2.35       -0.65       -2.69        1.05
(Free)E + p*V (eV/cell)     -899.0165
Target enthalpy (eV/cell)     -898.1525

siesta: Stress tensor (static) (eV/Ang**3):
         0.001755    0.000321   -0.001640
         0.000322    0.002285   -0.000593
        -0.001640   -0.000593    0.001580

siesta: Pressure (static):         -3.00133063  kBar

siesta: Stress tensor (total) (eV/Ang**3):
        -0.000701    0.000657   -0.001678
         0.000657    0.001829   -0.000403
        -0.001678   -0.000403    0.001464

siesta: Pressure (total):         -1.38437658  kBar

siesta: Temp_ion =    3516.859 K

                     ====================================
                        Begin MD step =    199
                     ====================================

outcell: Unit cell vectors (Ang):
       10.000004    0.000000    0.000000
        0.000000   10.000004    0.000000
        0.000000    0.000000   10.000004

outcell: Cell vector modules (Ang)   :   10.000004   10.000004   10.000004
outcell: Cell angles (23,13,12) (deg):     90.0000     90.0000     90.0000
outcell: Cell volume (Ang**3)        :   1000.0012
<dSpData1D:S at geom step 199
  <sparsity:sparsity for geom step 199
    nrows_g=26 nrows=26 sparsity=.7633 nnzs=516, refcount: 7>
  <dData1D:(new from dSpData1D) n=516, refcount: 1>
refcount: 1>
new_DM -- step:   199
Re-using DM from previous geometries...
Number of DMs in history: 1
 DM extrapolation coefficients: 
1   1.00000
New DM after history re-use:
<dSpData2D:SpM extrapolated using coords
  <sparsity:sparsity for geom step 199
    nrows_g=26 nrows=26 sparsity=.7633 nnzs=516, refcount: 9>
  <dData2D:(temp array for extrapolation) n=516 m=1, refcount: 1>
refcount: 1>
No. of atoms with KB's overlaping orbs in proc 0. Max # of overlaps:       4      18

InitMesh: MESH = 90 x 90 x 90 = 729000
InitMesh: Mesh cutoff (required, used) =   200.000   223.865 Ry
New grid distribution [1]: sub = 2

        iscf     Eharris(eV)        E_KS(eV)     FreeEng(eV)     dDmax    Ef(eV) dHmax(eV)
   scf:    1     -897.803242     -898.049806     -898.119116  0.027182 -5.821888  0.173238
   scf:    2     -898.031440     -898.044641     -898.113473  0.049529 -5.973959  0.121490
   scf:    3     -898.052758     -898.049515     -898.118715  0.023215 -5.925917  0.056762
   scf:    4     -898.050567     -898.050891     -898.120204  0.024492 -5.933971  0.022157
   scf:    5     -898.050868     -898.050920     -898.120234  0.004624 -5.936052  0.017225
   scf:    6     -898.050932     -898.050927     -898.120242  0.001055 -5.938290  0.014809
   scf:    7     -898.050956     -898.050947     -898.120262  0.001252 -5.949221  0.000632
   scf:    8     -898.050947     -898.050947     -898.120262  0.000293 -5.949407  0.000609

SCF Convergence by DM+H criterion
max |DM_out - DM_in|         :     0.0002926293
max |H_out - H_in|      (eV) :     0.0006091206
SCF cycle converged after 8 iterations

Using DM_out to compute the final energy and forces
No. of atoms with KB's overlaping orbs in proc 0. Max # of overlaps:       4      18

siesta: E_KS(eV) =             -898.0509

siesta: Atomic forces (eV/Ang):
----------------------------------------
   Tot    0.006197    0.002090   -0.002018
----------------------------------------
   Max    2.393302
   Res    1.375867    sqrt( Sum f_i^2 / 3N )
----------------------------------------
   Max    2.393302    constrained

Stress tensor Voigt[x,y,z,yz,xz,xy] (kbar):       -0.35        1.66        2.31       -0.45       -3.01        0.84
(Free)E + p*V (eV/cell)     -898.8723
Target enthalpy (eV/cell)     -898.1203

siesta: Stress tensor (static) (eV/Ang**3):
         0.001967    0.000219   -0.001688
         0.000220    0.001520   -0.000436
        -0.001688   -0.000436    0.001497

siesta: Pressure (static):         -2.66154567  kBar

siesta: Stress tensor (total) (eV/Ang**3):
        -0.000220    0.000522   -0.001877
         0.000522    0.001034   -0.000280
        -0.001877   -0.000280    0.001442

siesta: Pressure (total):         -1.20488313  kBar

siesta: Temp_ion =    3438.876 K

                     ====================================
                        Begin MD step =    200
                     ====================================

outcell: Unit cell vectors (Ang):
       10.000004    0.000000    0.000000
        0.000000   10.000004    0.000000
        0.000000    0.000000   10.000004

outcell: Cell vector modules (Ang)   :   10.000004   10.000004   10.000004
outcell: Cell angles (23,13,12) (deg):     90.0000     90.0000     90.0000
outcell: Cell volume (Ang**3)        :   1000.0012
<dSpData1D:S at geom step 200
  <sparsity:sparsity for geom step 200
    nrows_g=26 nrows=26 sparsity=.7633 nnzs=516, refcount: 7>
  <dData1D:(new from dSpData1D) n=516, refcount: 1>
refcount: 1>
new_DM -- step:   200
Re-using DM from previous geometries...
Number of DMs in history: 1
 DM extrapolation coefficients: 
1   1.00000
New DM after history re-use:
<dSpData2D:SpM extrapolated using coords
  <sparsity:sparsity for geom step 200
    nrows_g=26 nrows=26 sparsity=.7633 nnzs=516, refcount: 9>
  <dData2D:(temp array for extrapolation) n=516 m=1, refcount: 1>
refcount: 1>
Note: For starting DM, Qtot, Tr[D*S] =         14.00000000         14.02712509
No. of atoms with KB's overlaping orbs in proc 0. Max # of overlaps:       4      18

InitMesh: MESH = 90 x 90 x 90 = 729000
InitMesh: Mesh cutoff (required, used) =   200.000   223.865 Ry
New grid distribution [1]: sub = 2

        iscf     Eharris(eV)        E_KS(eV)     FreeEng(eV)     dDmax    Ef(eV) dHmax(eV)
   scf:    1     -898.080990     -898.182438     -898.251747  0.027510 -6.122663  0.240649
   scf:    2     -898.152686     -898.173259     -898.241790  0.060974 -5.893477  0.125757
   scf:    3     -898.182909     -898.178626     -898.247601  0.018745 -5.918060  0.114805
   scf:    4     -898.181504     -898.182674     -898.251982  0.040625 -5.891813  0.038365
   scf:    5     -898.182548     -898.182758     -898.252069  0.009685 -5.883616  0.016674
   scf:    6     -898.182125     -898.182649     -898.251948  0.011480 -5.896752  0.024423
   scf:    7     -898.182877     -898.182837     -898.252152  0.006479 -5.889708  0.002119
   scf:    8     -898.182840     -898.182839     -898.252153  0.000467 -5.889678  0.001421
   scf:    9     -898.182839     -898.182839     -898.252154  0.000599 -5.889098  0.000722
   scf:   10     -898.182839     -898.182839     -898.252154  0.000020 -5.889068  0.000696

SCF Convergence by DM+H criterion
max |DM_out - DM_in|         :     0.0000197084
max |H_out - H_in|      (eV) :     0.0006958862
SCF cycle converged after 10 iterations

Using DM_out to compute the final energy and forces
No. of atoms with KB's overlaping orbs in proc 0. Max # of overlaps:       4      18

siesta: E_KS(eV) =             -898.1828

siesta: Atomic forces (eV/Ang):
----------------------------------------
   Tot    0.001327   -0.000291   -0.003443
----------------------------------------
   Max    2.168067
   Res    1.143716    sqrt( Sum f_i^2 / 3N )
----------------------------------------
   Max    2.168067    constrained

Stress tensor Voigt[x,y,z,yz,xz,xy] (kbar):       -0.44        0.23        1.57       -0.20       -2.54        0.71
(Free)E + p*V (eV/cell)     -898.5349
Target enthalpy (eV/cell)     -898.2522

siesta: Stress tensor (static) (eV/Ang**3):
         0.001751    0.000140   -0.001376
         0.000140    0.000652   -0.000236
        -0.001376   -0.000236    0.001112

siesta: Pressure (static):         -1.87738414  kBar

siesta: Stress tensor (total) (eV/Ang**3):
        -0.000275    0.000443   -0.001586
         0.000444    0.000141   -0.000122
        -0.001586   -0.000122    0.000982

siesta: Pressure (total):         -0.45302161  kBar

siesta: Temp_ion =    3764.474 K

coxmol: Writing XMOL coordinates into file xoc.xyz                                                                                                                                                                                                                             

siesta: Program's energy decomposition (eV):
siesta: Ebs     =      -199.623173
siesta: Eions   =      1581.702395
siesta: Ena     =       337.354935
siesta: Ekin    =       622.863172
siesta: Enl     =       -87.591045
siesta: Eso     =         0.000000
siesta: Edftu   =         0.000000
siesta: DEna    =        13.543727
siesta: DUscf   =         0.973528
siesta: DUext   =         0.000000
siesta: Ex      =      -189.805553
siesta: Ec      =       -13.819207
siesta: Exc     =      -203.624760
siesta: EbV     =         0.000000
siesta: eta*DQ  =         0.000000
siesta: Emadel  =         0.000000
siesta: Emeta   =         0.000000
siesta: Emolmec =         0.000000
siesta: Ekinion =         1.459788
siesta: Eharris =      -896.723051
siesta: Etot    =      -896.723051
siesta: FreeEng =      -896.792366

siesta: Final energy (eV):
siesta:  Band Struct. =    -199.623173
siesta:       Kinetic =     622.863172
siesta:       Hartree =     850.672795
siesta:         Edftu =       0.000000
siesta:       Eso     =       0.000000
siesta:    Ext. field =       0.000000
siesta:         Exch. =    -189.805553
siesta:         Corr. =     -13.819207
siesta:     Bulk bias =       0.000000
siesta:   Exch.-corr. =    -203.624760
siesta:  Ion-electron =   -2264.281345
siesta:       Ion-ion =      96.187299
siesta:       Ekinion =       1.459788
siesta: D3 dispersion =       0.000000
siesta:         Total =    -896.723051
siesta:         Fermi =      -5.889068

siesta: Atomic forces (eV/Ang):
siesta:      1   -0.050692   -0.515245    0.137931
siesta:      2    0.052682    0.514595   -0.140907
siesta:      3    2.167404    0.093619   -1.689450
siesta:      4   -2.168067   -0.093260    1.688983
siesta: ----------------------------------------
siesta:    Tot    0.001327   -0.000291   -0.003443

siesta: Stress tensor (static) (eV/Ang**3):
siesta:     0.001751    0.000140   -0.001376
siesta:     0.000140    0.000652   -0.000236
siesta:    -0.001376   -0.000236    0.001112

siesta: Cell volume =       1000.001196 Ang**3

siesta: Pressure (static):
siesta:                Solid            Molecule  Units
siesta:          -0.00001276          0.00000004  Ry/Bohr**3
siesta:          -0.00117177          0.00000366  eV/Ang**3
siesta:          -1.87738414          0.00585834  kBar
(Free)E+ p_basis*V_orbitals  =        -897.493445
(Free)Eharris+ p_basis*V_orbitals  =        -897.493445

siesta: Electric dipole (a.u.)  =   -0.143706   -0.143706    0.000300
siesta: Electric dipole (Debye) =   -0.365265   -0.365265    0.000762

cite: Please see "xoc.bib" for an exhaustive BiBTeX file.
cite: Please clearly indicate Siesta version in published work: 5.2.1
cite: This calculation has made use of the following articles
cite: which are encouraged to be cited in a published work.
        Primary SIESTA paper
          DOI: www.doi.org/10.1088/0953-8984/14/11/302


timer: Elapsed wall time (sec) =     353.441
timer: CPU execution times (sec):

Routine            Calls   Time/call    Tot.time        %
siesta                 1    1451.119    1451.119   100.00
Setup                  1       1.090       1.090     0.08
bands                  1       0.000       0.000     0.00
KSV_init               1       0.000       0.000     0.00
IterGeom             200       7.250    1450.029    99.92
geom_init            200       0.196      39.125     2.70
state_init           200       0.001       0.129     0.01
hsparse              200       0.000       0.008     0.00
overlap              200       0.000       0.084     0.01
Setup_H0             200       0.088      17.659     1.22
naefs                400       0.000       0.006     0.00
dnaefs               400       0.000       0.005     0.00
MolMec               400       0.000       0.000     0.00
kinefsm              400       0.000       0.109     0.01
nlefsm               400       0.001       0.576     0.04
DHSCF_Init           200       0.085      17.080     1.18
DHSCF1               200       0.008       1.532     0.11
InitMesh             200       0.008       1.529     0.11
INITMESH             200       0.000       0.001     0.00
DHSCF2               200       0.078      15.548     1.07
REMESH               200       0.003       0.600     0.04
REORD               8692       0.002      14.716     1.01
PHION                200       0.037       7.477     0.52
COMM_BSC           11984       0.002      18.135     1.25
POISON              3046       0.138     421.415    29.04
fft                 6092       0.049     301.534    20.78
setup_H             2646       0.527    1394.786    96.12
DHSCF               2846       0.501    1427.214    98.35
DHSCF3              2846       0.497    1414.234    97.46
rhoofd              2846       0.028      79.082     5.45
XC                  2846       0.276     784.085    54.03
GXC-CellXC          2846       0.264     750.543    51.72
gridxc@cellXC       2846       0.264     750.487    51.72
vmat                2846       0.004      10.091     0.70
IterSCF             2446       0.563    1376.370    94.85
compute_dm          2446       0.001       2.613     0.18
diagon              2446       0.001       2.579     0.18
r-eigvec            2446       0.001       2.230     0.15
r-buildHS           2446       0.000       0.006     0.00
rdiag               2446       0.001       2.215     0.15
rdiag1              2446       0.000       0.011     0.00
rdiag2              2446       0.000       0.030     0.00
rdiag3              2446       0.001       2.049     0.14
rdiag4              2446       0.000       0.091     0.01
r-buildD            2446       0.000       0.224     0.02
MIXER               2246       0.000       0.051     0.00
PostSCF              200       0.172      34.435     2.37
FINAL_HF             200       0.172      34.432     2.37
DHSCF4               200       0.065      12.973     0.89
dfscf                200       0.048       9.555     0.66
overfsm              200       0.000       0.030     0.00
writeHSX             200       0.000       0.017     0.00
state_analysis       200       0.000       0.020     0.00
siesta_move          200       0.000       0.044     0.00
Analysis               1       0.000       0.000     0.00
optical                1       0.000       0.000     0.00
  

>> End of run:  26-MAR-2025  12:47:02
Job completed
