Executable      : siesta
Version         : 5.2.1
Architecture    : x86_64
Compiler version: GNU-13.3.0
Compiler flags  : -march=nocona -mtune=haswell -ftree-vectorize -fPIC -fstack-protector-strong -fno-plt -O2 -ffunction-sections -pipe -isystem <prefix>/include -I<prefix>/_build_env/include -fdebug-prefix-map=<prefix>/work=/usr/local/src/conda/siesta-5.2.1 -fdebug-prefix-map=<prefix>=/usr/local/src/conda-prefix -I<prefix>/lib -fallow-argument-mismatch -O3
Parallelisations: none
NetCDF support
NetCDF-4 support
Lua support
DFT-D3 support

Runtime information:
* Directory : /home/samba/homes/convidat/SIESTA_examples-main/MD_reaction/Prueba 3
* Running in serial mode.
>> Start of run:  26-MAR-2025  12:58:30

                           *********************** 
                           *  WELCOME TO SIESTA  * 
                           *********************** 

 NOTE: Siesta V5 introduces some new defaults for basis-set generation
 NOTE: which might lead to slightly different numerical results.
 NOTE: Please see the manual for full details and compatibility measures.


reinit: Reading from file xoc.fdf

reinit: -----------------------------------------------------------------------
reinit: System Name: H2 + O2 -> H2O2 reaction
reinit: -----------------------------------------------------------------------
reinit: System Label: xoc
reinit: -----------------------------------------------------------------------

initatom: Reading input for the pseudopotentials and atomic orbitals ----------
Species number:   1 Atomic number:    8 Label: O
Species number:   2 Atomic number:    1 Label: H

Ground state valence configuration (from tables):   2s02  2p04  3d00  4f00
Ground state valence configuration (from tables):   1s01  2p00  3d00  4f00

---- Processing specs for species: O
Reading pseudopotential information in formatted form from:
  O.psf

---- Processing specs for species: H
Reading pseudopotential information in unformatted form from:
  H.vps

---- Pseudopotential check for O 

Pseudopotential generated from a fully relativistic atomic calculation
There are spin-orbit semi-local pseudopotentials available

Pseudized shells:
2s( 2.00) rc: 1.14
2p( 4.00) rc: 1.14
3d( 0.00) rc: 1.14
4f( 0.00) rc: 1.14
Valence configuration for ps generation: (assumed as above)

---- Pseudopotential check for H 

Pseudized shells:
1s( 1.00) rc: 1.25
2p( 0.00) rc: 1.25
3d( 0.00) rc: 1.25
4f( 0.00) rc: 1.25
Valence configuration for ps generation: (assumed as above)
For O, standard SIESTA heuristics set lmxkb to 3
 (one more than the basis l, including polarization orbitals).
Use PS.lmax or PS.KBprojectors blocks to override.
For H, standard SIESTA heuristics set lmxkb to 2
 (one more than the basis l, including polarization orbitals).
Use PS.lmax or PS.KBprojectors blocks to override.

<basis_specs>
===============================================================================
O                    Z=   8    Mass=  15.999        Charge= 0.17977+309
Lmxo=2 Lmxkb= 3    BasisType=split      Semic=F
L=0  Nsemic=0  Cnfigmx=2
          i=1  nzeta=1  polorb=0  (2s)
            splnorm:   0.15000    
               vcte:    40.000    
               rinn:  -0.90000    
               qcoe:    0.0000    
               qyuk:    0.0000    
               qwid:   0.10000E-01
                rcs:    0.0000    
            lambdas:    1.0000    
L=1  Nsemic=0  Cnfigmx=2
          i=1  nzeta=1  polorb=1  (2p)  (to be polarized perturbatively)
            splnorm:   0.15000    
               vcte:    40.000    
               rinn:  -0.90000    
               qcoe:    0.0000    
               qyuk:    0.0000    
               qwid:   0.10000E-01
                rcs:    0.0000    
            lambdas:    1.0000    
L=2  Nsemic=0  Cnfigmx=3
          i=1  nzeta=0  polorb=0  (3d)  (perturbative polarization orbital) (from 2p)
-------------------------------------------------------------------------------
L=0  Nkbl=1  erefs: 0.17977+309
L=1  Nkbl=1  erefs: 0.17977+309
L=2  Nkbl=1  erefs: 0.17977+309
L=3  Nkbl=1  erefs: 0.17977+309
===============================================================================
</basis_specs>

Using PAO.SplitTailNorm
atom: Called for O                     (Z =   8)
Maximum radius (at nrval) set to   50.00000 8518

read_vps: Pseudopotential generation method:
read_vps: ATM3      Troullier-Martins                       
Valence charge in pseudo generation:    6.00000

read_vps: Pseudopotential includes a core correction:
read_vps: Pseudo-core for xc-correction

xc_check: Exchange-correlation functional:
xc_check: GGA Perdew, Burke & Ernzerhof 1996
V l=0 = -2*Zval/r beyond r=  1.1355
V l=1 = -2*Zval/r beyond r=  1.1355
V l=2 = -2*Zval/r beyond r=  1.1309
V l=3 = -2*Zval/r beyond r=  1.1286
All V_l potentials equal beyond r=  1.1355
This should be close to max(r_c) in ps generation
All pots = -2*Zval/r beyond r=  1.1355
Using small-core scheme (local charge) for Vlocal

VLOCAL_FROM_CHLOCAL: 99.0% of the norm of Vloc inside     33.667 Ry
VLOCAL_FROM_CHLOCAL: 99.9% of the norm of Vloc inside     76.727 Ry
atom: Maximum radius for chlocal:    1.37241
atom: Maximum radius for r*vlocal+2*Zval:    1.25469

KBgen: Kleinman-Bylander projectors: 
GHOST: No ghost state for L =  0
   l= 0   rc=  1.357289   el= -1.759790   Ekb=  9.151830   kbcos=  0.327271
GHOST: No ghost state for L =  1
   l= 1   rc=  1.345038   el= -0.663797   Ekb= -7.991133   kbcos= -0.393963
GHOST: No ghost state for L =  2
   l= 2   rc=  1.779310   el=  0.012956   Ekb= -1.983219   kbcos= -0.003702
GHOST: No ghost state for L =  3
   l= 3   rc=  2.085579   el=  0.019231   Ekb= -0.873623   kbcos= -0.000360

KBgen: Total number of Kleinman-Bylander projectors:  16
atom: -------------------------------------------------------------------------

atom: SANKEY-TYPE ORBITALS:

SPLIT: Orbitals with angular momentum L= 0

SPLIT: Basis orbitals for state 2s

SPLIT: PAO cut-off radius determined from an
SPLIT: energy shift=  0.010000 Ry
Split based on tail norm

   izeta = 1
                 lambda =    1.000000
                     rc =    3.532490
                 energy =   -1.748682
                kinetic =    1.612754
    potential(screened) =   -3.361436
       potential(ionic) =  -11.306460

SPLIT: Orbitals with angular momentum L= 1

SPLIT: Basis orbitals for state 2p

SPLIT: PAO cut-off radius determined from an
SPLIT: energy shift=  0.010000 Ry
Split based on tail norm

   izeta = 1
                 lambda =    1.000000
                     rc =    4.299534
                 energy =   -0.652755
                kinetic =    4.913628
    potential(screened) =   -5.566382
       potential(ionic) =  -13.292903

POLgen: Perturbative polarization orbital with L=  2

POLgen: Polarization orbital for state 2p
Split based on tail norm

   izeta = 1
                     rc =    4.299534
                 energy =    2.258078
                kinetic =    4.298689
    potential(screened) =   -2.040611
       potential(ionic) =   -8.188336
atom: Total number of Sankey-type orbitals:  9

atm_pop: Valence configuration (for local Pseudopot. screening):
 2s( 2.00)                                                            
 2p( 4.00)                                                            
 3d( 0.00)                                                            
Vna: chval, zval:    6.00000   6.00000

Vna:  Cut-off radius for the neutral-atom potential:   4.299534
comcore: Pseudo-core radius Rcore=  1.364142

atom: _________________________________________________________________________

<basis_specs>
===============================================================================
H                    Z=   1    Mass=  1.0080        Charge= 0.17977+309
Lmxo=1 Lmxkb= 2    BasisType=split      Semic=F
L=0  Nsemic=0  Cnfigmx=1
          i=1  nzeta=1  polorb=1  (1s)  (to be polarized perturbatively)
            splnorm:   0.15000    
               vcte:    40.000    
               rinn:  -0.90000    
               qcoe:    0.0000    
               qyuk:    0.0000    
               qwid:   0.10000E-01
                rcs:    0.0000    
            lambdas:    1.0000    
L=1  Nsemic=0  Cnfigmx=2
          i=1  nzeta=0  polorb=0  (2p)  (perturbative polarization orbital) (from 1s)
-------------------------------------------------------------------------------
L=0  Nkbl=1  erefs: 0.17977+309
L=1  Nkbl=1  erefs: 0.17977+309
L=2  Nkbl=1  erefs: 0.17977+309
===============================================================================
</basis_specs>

Using PAO.SplitTailNorm
atom: Called for H                     (Z =   1)
Maximum radius (at nrval) set to   50.00000 8518

read_vps: Pseudopotential generation method:
read_vps: ATM3      Troullier-Martins                       
Valence charge in pseudo generation:    1.00000

xc_check: Exchange-correlation functional:
xc_check: GGA Perdew, Burke & Ernzerhof 1996
V l=0 = -2*Zval/r beyond r=  1.2384
V l=1 = -2*Zval/r beyond r=  1.2321
V l=2 = -2*Zval/r beyond r=  1.2235
All V_l potentials equal beyond r=  1.2371
This should be close to max(r_c) in ps generation
All pots = -2*Zval/r beyond r=  1.2384
Using small-core scheme (local charge) for Vlocal

VLOCAL_FROM_CHLOCAL: 99.0% of the norm of Vloc inside     28.363 Ry
VLOCAL_FROM_CHLOCAL: 99.9% of the norm of Vloc inside     64.639 Ry
atom: Maximum radius for chlocal:    1.44620
atom: Maximum radius for r*vlocal+2*Zval:    1.31026

KBgen: Kleinman-Bylander projectors: 
GHOST: No ghost state for L =  0
   l= 0   rc=  1.362769   el= -0.477200   Ekb= -2.026093   kbcos= -0.345051
GHOST: No ghost state for L =  1
   l= 1   rc=  1.431710   el=  0.007219   Ekb= -0.445752   kbcos= -0.023729
GHOST: No ghost state for L =  2
   l= 2   rc=  1.471166   el=  0.012944   Ekb= -0.141918   kbcos= -0.003041

KBgen: Total number of Kleinman-Bylander projectors:   9
atom: -------------------------------------------------------------------------

atom: SANKEY-TYPE ORBITALS:

SPLIT: Orbitals with angular momentum L= 0

SPLIT: Basis orbitals for state 1s

SPLIT: PAO cut-off radius determined from an
SPLIT: energy shift=  0.010000 Ry
Split based on tail norm

   izeta = 1
                 lambda =    1.000000
                     rc =    5.232664
                 energy =   -0.466073
                kinetic =    0.944036
    potential(screened) =   -1.410108
       potential(ionic) =   -1.935607

POLgen: Perturbative polarization orbital with L=  1

POLgen: Polarization orbital for state 1s
Split based on tail norm

   izeta = 1
                     rc =    5.232664
                 energy =    0.681103
                kinetic =    1.331928
    potential(screened) =   -0.650824
       potential(ionic) =   -1.138826
atom: Total number of Sankey-type orbitals:  4

atm_pop: Valence configuration (for local Pseudopot. screening):
 1s( 1.00)                                                            
 2p( 0.00)                                                            
Vna: chval, zval:    1.00000   1.00000

Vna:  Cut-off radius for the neutral-atom potential:   5.232664

atom: _________________________________________________________________________

prinput: Basis input 

PAO.BasisType split     

%block ChemicalSpeciesLabel
    1    8 O                       # Species index, atomic number, species label
    2    1 H                       # Species index, atomic number, species label
%endblock ChemicalSpeciesLabel

%block PAO.Basis                 # Define Basis set
# WARNING: This information might be incomplete!
O                     2                    # Species label, number of l-shells
 n=2   0   1                         # n, l, Nzeta 
   3.532   
   1.000   
 n=2   1   1 P   1                   # n, l, Nzeta, Polarization, NzetaPol
   4.300   
   1.000   
H                     1                    # Species label, number of l-shells
 n=1   0   1 P   1                   # n, l, Nzeta, Polarization, NzetaPol
   5.233   
   1.000   
%endblock PAO.Basis

prinput: ----------------------------------------------------------------------

Dumping basis to NetCDF file O.ion.nc
Dumping basis to NetCDF file H.ion.nc
coor:   Atomic-coordinates input format  =     Cartesian coordinates
coor:                                          (in Angstroms)

ioxv: Reading coordinates and velocities from file
! Info in XV file prevails over previous structure input
WARNING: xoc.VERLET_RESTART not found--reading only XV file and moving back 1 time step using Euler

siesta: Atomic coordinates (Bohr) and species
siesta:      2.24735  -0.00100  -0.00070  1        1
siesta:      4.69413  -0.00100  -0.00070  1        2
siesta:     12.94052   0.01600   0.01130  2        3
siesta:     14.34566   0.01600   0.01130  2        4

siesta: System type = chain     

initatomlists: Number of atoms, orbitals, and projectors:      4    26    50

coxmol: Writing XMOL coordinates into file xoc.xyz                                                                                                                                                                                                                             

siesta: ******************** Simulation parameters ****************************
siesta:
siesta: The following are some of the parameters of the simulation.
siesta: A complete list of the parameters used, including default values,
siesta: can be found in file out.fdf
siesta:
redata: Spin configuration                          = none
redata: Number of spin components                   = 1
redata: Time-Reversal Symmetry                      = T
redata: Spin spiral                                 = F
redata: Long output                                 =   F
redata: Number of Atomic Species                    =        2
redata: Charge density info will appear in .RHO file
redata: Write Mulliken charges (when)               = none
redata: Write Mulliken Pop.                         = NO
redata: Write Hirshfeld charges (when)              = none
redata: Write Voronoi charges (when)                = none
redata: Write spin charge (when)                    = none
redata: Matel table size (NRTAB)                    =     1024
redata: Mesh Cutoff                                 =   200.0000 Ry
redata: Net charge of the system                    =     0.0000 |e|
redata: Min. number of SCF Iter                     =        0
redata: Max. number of SCF Iter                     =      250
redata: SCF convergence failure will abort job
redata: SCF mix quantity                            = Hamiltonian
redata: Mix DM or H after convergence               =   F
redata: Recompute H after scf cycle                 =   F
redata: Mix DM in first SCF step                    =   T
redata: Write Pulay info on disk                    =   F
redata: New DM Occupancy tolerance                  = 0.000000000001
redata: No kicks to SCF
redata: DM Mixing Weight for Kicks                  =     0.5000
redata: Require Harris convergence for SCF          =   F
redata: Harris energy tolerance for SCF             =     0.000100 eV
redata: Require DM convergence for SCF              =   T
redata: DM tolerance for SCF                        =     0.000300
redata: Require EDM convergence for SCF             =   F
redata: EDM tolerance for SCF                       =     0.001000 eV
redata: Require H convergence for SCF               =   T
redata: Hamiltonian tolerance for SCF               =     0.001000 eV
redata: Require (free) Energy convergence for SCF   =   F
redata: (free) Energy tolerance for SCF             =     0.000100 eV
redata: Using DFT-D3 dispersion                     =   F
redata: Using Saved Data (generic)                  =   F
redata: Use continuation files for DM               =   T
redata: Neglect nonoverlap interactions             =   F
redata: Method of Calculation                       = Diagonalization
redata: Electronic Temperature                      =   290.1130 K
redata: Fix the spin of the system                  =   F
redata: Max. number of TDED Iter                    =        1
redata: Number of TDED substeps                     =        3
redata: Dynamics option                             = Verlet MD run
redata: Initial MD time step                        =        1
redata:   Final MD time step                        =      100
redata: Length of MD time step                      =     1.0000 fs
redata: Initial Temperature of MD run               =     0.0000 K
redata: Perform a MD quench                         =   F
mix.SCF: Pulay mixing                            = Pulay
mix.SCF:    Variant                              = stable
mix.SCF:    History steps                        = 6
mix.SCF:    Linear mixing weight                 =     0.020000
mix.SCF:    Mixing weight                        =     0.020000
mix.SCF:    SVD condition                        = 0.1000E-07
redata: Save all siesta data in one NC              =   F
redata: ***********************************************************************

%block SCF.Mixers
  Pulay
%endblock SCF.Mixers

%block SCF.Mixer.Pulay
  # Mixing method
  method pulay
  variant stable

  # Mixing options
  weight 0.0200
  weight.linear 0.0200
  history 6
%endblock SCF.Mixer.Pulay

Size of DM history Fstack: 1
Total number of electrons:    14.000000
Total ionic charge:    14.000000
 Kpoints in:            1 . Kpoints trimmed:            1

siesta: k-grid: Number of k-points = 1
siesta: k-points from Monkhorst-Pack grid
siesta: k-cutoff (effective) =     5.000 Ang
siesta: k-point supercell and displacements
siesta: k-grid:     1     0     0      0.000
siesta: k-grid:     0     1     0      0.000
siesta: k-grid:     0     0     1      0.000

diag: Algorithm                                     = D&C
diag: Used triangular part                          = Lower
diag: Absolute tolerance                            =  0.100E-15
diag: Orthogonalization factor                      =  0.100E-05
diag: Memory factor                                 =  1.0000


ts: **************************************************************
ts: Save H and S matrices                           =    F
ts: Save DM and EDM matrices                        =    F
ts: Only save the overlap matrix S                  =    F
ts: **************************************************************

************************ Begin: TS CHECKS AND WARNINGS ************************
************************ End: TS CHECKS AND WARNINGS **************************


                     ====================================
                        Begin MD step =      1
                     ====================================

outcell: Unit cell vectors (Ang):
       10.000004    0.000000    0.000000
        0.000000   10.000004    0.000000
        0.000000    0.000000   10.000004

outcell: Cell vector modules (Ang)   :   10.000004   10.000004   10.000004
outcell: Cell angles (23,13,12) (deg):     90.0000     90.0000     90.0000
outcell: Cell volume (Ang**3)        :   1000.0012
<dSpData1D:S at geom step 1
  <sparsity:sparsity for geom step 1
    nrows_g=26 nrows=26 sparsity=1.0000 nnzs=676, refcount: 7>
  <dData1D:(new from dSpData1D) n=676, refcount: 1>
refcount: 1>
new_DM -- step:     1
Initializing Density Matrix...

Attempting to read DM from file... Failed...
DM filled with atomic data:
<dSpData2D:DM initialized from atoms
  <sparsity:sparsity for geom step 1
    nrows_g=26 nrows=26 sparsity=1.0000 nnzs=676, refcount: 8>
  <dData2D:DM n=676 m=1, refcount: 1>
refcount: 1>
No. of atoms with KB's overlaping orbs in proc 0. Max # of overlaps:       4      22

InitMesh: MESH = 90 x 90 x 90 = 729000
InitMesh: Mesh cutoff (required, used) =   200.000   223.865 Ry
New grid distribution [1]: sub = 2

stepf: Fermi-Dirac step function

siesta: Program's energy decomposition (eV):
siesta: Ebs     =      -210.620601
siesta: Eions   =      1581.702395
siesta: Ena     =       338.185626
siesta: Ekin    =       624.927246
siesta: Enl     =       -90.957741
siesta: Eso     =         0.000000
siesta: Edftu   =         0.000000
siesta: DEna    =        14.417511
siesta: DUscf   =         1.616232
siesta: DUext   =         0.000000
siesta: Ex      =      -190.558499
siesta: Ec      =       -13.831810
siesta: Exc     =      -204.390309
siesta: EbV     =         0.000000
siesta: eta*DQ  =         0.000000
siesta: Emadel  =         0.000000
siesta: Emeta   =         0.000000
siesta: Emolmec =         0.000000
siesta: Ekinion =         0.000000
siesta: Eharris =      -900.093877
siesta: Etot    =      -897.903831
siesta: FreeEng =      -897.973145

        iscf     Eharris(eV)        E_KS(eV)     FreeEng(eV)     dDmax    Ef(eV) dHmax(eV)
   scf:    1     -900.093877     -897.903831     -897.973145  0.773975 -4.637347  2.450952
timer: Routine,Calls,Time,% = IterSCF        1       0.584  25.82
   scf:    2     -897.942441     -897.923194     -897.992509  0.001868 -4.670304  2.383865
   scf:    3     -898.375230     -898.213990     -898.283304  0.065655 -5.762066  0.211653
   scf:    4     -898.217341     -898.216349     -898.285664  0.006482 -5.702049  0.326402
   scf:    5     -898.213658     -898.215606     -898.284921  0.008707 -5.909434  0.148723
   scf:    6     -898.218437     -898.217506     -898.286821  0.005274 -5.866586  0.017317
mix: Pulay -- inversion failed, > SVD [rank/size] 4 / 5
   scf:    7     -898.217522     -898.217514     -898.286829  0.000106 -5.868094  0.014193
   scf:    8     -898.217541     -898.217530     -898.286844  0.000468 -5.870281  0.003091
   scf:    9     -898.217531     -898.217531     -898.286845  0.000362 -5.870945  0.000402
   scf:   10     -898.217531     -898.217531     -898.286845  0.000007 -5.871007  0.000362

SCF Convergence by DM+H criterion
max |DM_out - DM_in|         :     0.0000069906
max |H_out - H_in|      (eV) :     0.0003619256
SCF cycle converged after 10 iterations

Using DM_out to compute the final energy and forces
No. of atoms with KB's overlaping orbs in proc 0. Max # of overlaps:       4      22

siesta: E_KS(eV) =             -898.2175

siesta: E_KS - E_eggbox =      -898.2175

siesta: Atomic forces (eV/Ang):
----------------------------------------
   Tot    0.003229   -0.000236   -0.000182
----------------------------------------
   Max    4.222093
   Res    1.733698    sqrt( Sum f_i^2 / 3N )
----------------------------------------
   Max    4.222093    constrained

Stress tensor Voigt[x,y,z,yz,xz,xy] (kbar):     -163.98       -0.42       -0.25       -0.10        0.09        0.09
(Free)E + p*V (eV/cell)     -864.0329
Target enthalpy (eV/cell)     -898.2868

siesta: Stress tensor (static) (eV/Ang**3):
        -0.003726   -0.000000   -0.000000
        -0.000000    0.000006    0.000000
        -0.000000    0.000000    0.000006

siesta: Pressure (static):          1.98374552  kBar

siesta: Stress tensor (total) (eV/Ang**3):
        -0.102349    0.000055    0.000056
         0.000055   -0.000259   -0.000060
         0.000056   -0.000060   -0.000154

siesta: Pressure (total):         54.88077071  kBar

siesta: Temp_ion =  127710.684 K

                     ====================================
                        Begin MD step =      2
                     ====================================

outcell: Unit cell vectors (Ang):
       10.000004    0.000000    0.000000
        0.000000   10.000004    0.000000
        0.000000    0.000000   10.000004

outcell: Cell vector modules (Ang)   :   10.000004   10.000004   10.000004
outcell: Cell angles (23,13,12) (deg):     90.0000     90.0000     90.0000
outcell: Cell volume (Ang**3)        :   1000.0012
<dSpData1D:S at geom step 2
  <sparsity:sparsity for geom step 2
    nrows_g=26 nrows=26 sparsity=.9763 nnzs=660, refcount: 7>
  <dData1D:(new from dSpData1D) n=660, refcount: 1>
refcount: 1>
new_DM -- step:     2
Re-using DM from previous geometries...
Number of DMs in history: 1
 DM extrapolation coefficients: 
1   1.00000
New DM after history re-use:
<dSpData2D:SpM extrapolated using coords
  <sparsity:sparsity for geom step 2
    nrows_g=26 nrows=26 sparsity=.9763 nnzs=660, refcount: 9>
  <dData2D:(temp array for extrapolation) n=660 m=1, refcount: 1>
refcount: 1>
No. of atoms with KB's overlaping orbs in proc 0. Max # of overlaps:       4      18

InitMesh: MESH = 90 x 90 x 90 = 729000
InitMesh: Mesh cutoff (required, used) =   200.000   223.865 Ry
New grid distribution [1]: sub = 2

        iscf     Eharris(eV)        E_KS(eV)     FreeEng(eV)     dDmax    Ef(eV) dHmax(eV)
   scf:    1     -898.278235     -898.302992     -898.372307  0.012583 -5.764297  0.143020
   scf:    2     -898.297530     -898.301356     -898.370657  0.016102 -5.872924  0.161433
   scf:    3     -898.303834     -898.302899     -898.372212  0.009139 -5.821509  0.100697
   scf:    4     -898.302823     -898.303045     -898.372352  0.012679 -5.861535  0.012836
   scf:    5     -898.303137     -898.303140     -898.372455  0.007789 -5.862675  0.006278
   scf:    6     -898.303140     -898.303140     -898.372455  0.000230 -5.863062  0.006290
   scf:    7     -898.303146     -898.303144     -898.372458  0.000443 -5.866324  0.000492
   scf:    8     -898.303144     -898.303144     -898.372458  0.000050 -5.866449  0.000266

SCF Convergence by DM+H criterion
max |DM_out - DM_in|         :     0.0000503060
max |H_out - H_in|      (eV) :     0.0002664092
SCF cycle converged after 8 iterations

Using DM_out to compute the final energy and forces
No. of atoms with KB's overlaping orbs in proc 0. Max # of overlaps:       4      18

siesta: E_KS(eV) =             -898.3031

siesta: Atomic forces (eV/Ang):
----------------------------------------
   Tot    0.000739    0.000165    0.000231
----------------------------------------
   Max    3.090906
   Res    1.283041    sqrt( Sum f_i^2 / 3N )
----------------------------------------
   Max    3.090906    constrained

Stress tensor Voigt[x,y,z,yz,xz,xy] (kbar):     -162.79       -0.42       -0.27       -0.11       -0.17       -0.10
(Free)E + p*V (eV/cell)     -864.3614
Target enthalpy (eV/cell)     -898.3725

siesta: Stress tensor (static) (eV/Ang**3):
        -0.002981   -0.000117   -0.000165
        -0.000117    0.000001   -0.000008
        -0.000165   -0.000008   -0.000006

siesta: Pressure (static):          1.59468559  kBar

siesta: Stress tensor (total) (eV/Ang**3):
        -0.101603   -0.000062   -0.000109
        -0.000062   -0.000265   -0.000067
        -0.000109   -0.000067   -0.000166

siesta: Pressure (total):         54.49171077  kBar

siesta: Temp_ion =  127875.980 K

                     ====================================
                        Begin MD step =      3
                     ====================================

outcell: Unit cell vectors (Ang):
       10.000004    0.000000    0.000000
        0.000000   10.000004    0.000000
        0.000000    0.000000   10.000004

outcell: Cell vector modules (Ang)   :   10.000004   10.000004   10.000004
outcell: Cell angles (23,13,12) (deg):     90.0000     90.0000     90.0000
outcell: Cell volume (Ang**3)        :   1000.0012
<dSpData1D:S at geom step 3
  <sparsity:sparsity for geom step 3
    nrows_g=26 nrows=26 sparsity=1.0000 nnzs=676, refcount: 7>
  <dData1D:(new from dSpData1D) n=676, refcount: 1>
refcount: 1>
new_DM -- step:     3
Re-using DM from previous geometries...
Number of DMs in history: 1
 DM extrapolation coefficients: 
1   1.00000
New DM after history re-use:
<dSpData2D:SpM extrapolated using coords
  <sparsity:sparsity for geom step 3
    nrows_g=26 nrows=26 sparsity=1.0000 nnzs=676, refcount: 9>
  <dData2D:(temp array for extrapolation) n=676 m=1, refcount: 1>
refcount: 1>
Note: For starting DM, Qtot, Tr[D*S] =         14.00000000         13.95768249
No. of atoms with KB's overlaping orbs in proc 0. Max # of overlaps:       4      22

InitMesh: MESH = 90 x 90 x 90 = 729000
InitMesh: Mesh cutoff (required, used) =   200.000   223.865 Ry
New grid distribution [1]: sub = 2

        iscf     Eharris(eV)        E_KS(eV)     FreeEng(eV)     dDmax    Ef(eV) dHmax(eV)
   scf:    1     -898.312357     -898.438403     -898.507718  0.019969 -5.481661  0.507160
   scf:    2     -898.415494     -898.431895     -898.501194  0.018815 -5.907348  0.350659
   scf:    3     -898.441323     -898.437212     -898.506522  0.007179 -5.786471  0.266495
   scf:    4     -898.439570     -898.439552     -898.508856  0.013643 -5.865057  0.030205
   scf:    5     -898.439491     -898.439662     -898.508974  0.010702 -5.867040  0.023773
   scf:    6     -898.439652     -898.439660     -898.508971  0.000649 -5.871011  0.022877
   scf:    7     -898.439765     -898.439742     -898.509057  0.004190 -5.880295  0.001954
   scf:    8     -898.439742     -898.439742     -898.509057  0.000291 -5.880514  0.001066
   scf:    9     -898.439742     -898.439742     -898.509057  0.000094 -5.881190  0.000369

SCF Convergence by DM+H criterion
max |DM_out - DM_in|         :     0.0000939327
max |H_out - H_in|      (eV) :     0.0003690804
SCF cycle converged after 9 iterations

Using DM_out to compute the final energy and forces
No. of atoms with KB's overlaping orbs in proc 0. Max # of overlaps:       4      22

siesta: E_KS(eV) =             -898.4397

siesta: Atomic forces (eV/Ang):
----------------------------------------
   Tot   -0.003194   -0.000012    0.000230
----------------------------------------
   Max    0.468160
   Res    0.192974    sqrt( Sum f_i^2 / 3N )
----------------------------------------
   Max    0.468160    constrained

Stress tensor Voigt[x,y,z,yz,xz,xy] (kbar):     -159.08       -0.43       -0.27       -0.11       -0.25       -0.17
(Free)E + p*V (eV/cell)     -865.2675
Target enthalpy (eV/cell)     -898.5091

siesta: Stress tensor (static) (eV/Ang**3):
        -0.000558   -0.000023   -0.000010
        -0.000023    0.000004   -0.000001
        -0.000010   -0.000001    0.000004

siesta: Pressure (static):          0.29330788  kBar

siesta: Stress tensor (total) (eV/Ang**3):
        -0.099291   -0.000109   -0.000155
        -0.000109   -0.000266   -0.000069
        -0.000155   -0.000069   -0.000167

siesta: Pressure (total):         53.25879779  kBar

siesta: Temp_ion =  128188.906 K

                     ====================================
                        Begin MD step =      4
                     ====================================

outcell: Unit cell vectors (Ang):
       10.000004    0.000000    0.000000
        0.000000   10.000004    0.000000
        0.000000    0.000000   10.000004

outcell: Cell vector modules (Ang)   :   10.000004   10.000004   10.000004
outcell: Cell angles (23,13,12) (deg):     90.0000     90.0000     90.0000
outcell: Cell volume (Ang**3)        :   1000.0012
<dSpData1D:S at geom step 4
  <sparsity:sparsity for geom step 4
    nrows_g=26 nrows=26 sparsity=.9882 nnzs=668, refcount: 7>
  <dData1D:(new from dSpData1D) n=668, refcount: 1>
refcount: 1>
new_DM -- step:     4
Re-using DM from previous geometries...
Number of DMs in history: 1
 DM extrapolation coefficients: 
1   1.00000
New DM after history re-use:
<dSpData2D:SpM extrapolated using coords
  <sparsity:sparsity for geom step 4
    nrows_g=26 nrows=26 sparsity=.9882 nnzs=668, refcount: 9>
  <dData2D:(temp array for extrapolation) n=668 m=1, refcount: 1>
refcount: 1>
Note: For starting DM, Qtot, Tr[D*S] =         14.00000000         13.94987557
No. of atoms with KB's overlaping orbs in proc 0. Max # of overlaps:       4      22

InitMesh: MESH = 90 x 90 x 90 = 729000
InitMesh: Mesh cutoff (required, used) =   200.000   223.865 Ry
New grid distribution [1]: sub = 2

        iscf     Eharris(eV)        E_KS(eV)     FreeEng(eV)     dDmax    Ef(eV) dHmax(eV)
   scf:    1     -898.189280     -898.367074     -898.436386  0.021694 -5.431897  0.641444
   scf:    2     -898.305956     -898.349013     -898.417877  0.074729 -5.962407  0.536506
   scf:    3     -898.374569     -898.363866     -898.433076  0.034600 -5.792224  0.384963
   scf:    4     -898.359344     -898.366680     -898.435780  0.070205 -5.903804  0.074434
   scf:    5     -898.368997     -898.369273     -898.438587  0.040172 -5.907634  0.028478
   scf:    6     -898.369276     -898.369275     -898.438589  0.000224 -5.910967  0.028512
   scf:    7     -898.369396     -898.369351     -898.438666  0.002091 -5.926565  0.002021
   scf:    8     -898.369352     -898.369352     -898.438666  0.000117 -5.926241  0.001661
   scf:    9     -898.369350     -898.369351     -898.438666  0.000598 -5.927113  0.001117
   scf:   10     -898.369351     -898.369351     -898.438666  0.000019 -5.927234  0.000886

SCF Convergence by DM+H criterion
max |DM_out - DM_in|         :     0.0000188355
max |H_out - H_in|      (eV) :     0.0008859450
SCF cycle converged after 10 iterations

Using DM_out to compute the final energy and forces
No. of atoms with KB's overlaping orbs in proc 0. Max # of overlaps:       4      22

siesta: E_KS(eV) =             -898.3694

siesta: Atomic forces (eV/Ang):
----------------------------------------
   Tot    0.007679    0.000215    0.000289
----------------------------------------
   Max    1.811732
   Res    0.757871    sqrt( Sum f_i^2 / 3N )
----------------------------------------
   Max    1.811732    constrained

Stress tensor Voigt[x,y,z,yz,xz,xy] (kbar):     -156.21       -0.40       -0.20       -0.06        0.10        0.04
(Free)E + p*V (eV/cell)     -865.8156
Target enthalpy (eV/cell)     -898.4387

siesta: Stress tensor (static) (eV/Ang**3):
         0.001459    0.000183    0.000307
         0.000183    0.000028    0.000037
         0.000307    0.000037    0.000063

siesta: Pressure (static):         -0.82728756  kBar

siesta: Stress tensor (total) (eV/Ang**3):
        -0.097498    0.000024    0.000065
         0.000024   -0.000248   -0.000039
         0.000065   -0.000039   -0.000122

siesta: Pressure (total):         52.26781434  kBar

siesta: Temp_ion =  128044.376 K

                     ====================================
                        Begin MD step =      5
                     ====================================

outcell: Unit cell vectors (Ang):
       10.000004    0.000000    0.000000
        0.000000   10.000004    0.000000
        0.000000    0.000000   10.000004

outcell: Cell vector modules (Ang)   :   10.000004   10.000004   10.000004
outcell: Cell angles (23,13,12) (deg):     90.0000     90.0000     90.0000
outcell: Cell volume (Ang**3)        :   1000.0012
Gamma-point calculation with multiply-connected orbital pairs
Folding of H and S implicitly performed
<dSpData1D:S at geom step 5
  <sparsity:sparsity for geom step 5
    nrows_g=26 nrows=26 sparsity=1.0000 nnzs=676, refcount: 7>
  <dData1D:(new from dSpData1D) n=676, refcount: 1>
refcount: 1>
new_DM -- step:     5
Re-using DM from previous geometries...
Number of DMs in history: 1
 DM extrapolation coefficients: 
1   1.00000
New DM after history re-use:
<dSpData2D:SpM extrapolated using coords
  <sparsity:sparsity for geom step 5
    nrows_g=26 nrows=26 sparsity=1.0000 nnzs=676, refcount: 9>
  <dData2D:(temp array for extrapolation) n=676 m=1, refcount: 1>
refcount: 1>
Note: For starting DM, Qtot, Tr[D*S] =         14.00000000         13.97010724
No. of atoms with KB's overlaping orbs in proc 0. Max # of overlaps:       4      26

InitMesh: MESH = 90 x 90 x 90 = 729000
InitMesh: Mesh cutoff (required, used) =   200.000   223.865 Ry
New grid distribution [1]: sub = 2

        iscf     Eharris(eV)        E_KS(eV)     FreeEng(eV)     dDmax    Ef(eV) dHmax(eV)
   scf:    1     -898.129083     -898.258676     -898.327976  0.023878 -5.648705  0.464698
   scf:    2     -898.185485     -898.236219     -898.303777  0.112455 -6.061897  0.281742
   scf:    3     -898.263745     -898.252097     -898.320855  0.045172 -5.967814  0.203912
   scf:    4     -898.250825     -898.258420     -898.327626  0.083657 -6.013733  0.073829
   scf:    5     -898.255333     -898.259060     -898.328305  0.046016 -6.010233  0.029101
   scf:    6     -898.260088     -898.259894     -898.329208  0.018035 -6.021161  0.013693
   scf:    7     -898.259959     -898.259935     -898.329250  0.001566 -6.029546  0.002044
   scf:    8     -898.259939     -898.259938     -898.329253  0.001231 -6.029235  0.001946
   scf:    9     -898.259938     -898.259938     -898.329253  0.000513 -6.029624  0.001580
   scf:   10     -898.259938     -898.259938     -898.329253  0.000065 -6.029677  0.001373
   scf:   11     -898.259939     -898.259939     -898.329253  0.000350 -6.029963  0.000628
   scf:   12     -898.259939     -898.259939     -898.329253  0.000016 -6.029984  0.000625

SCF Convergence by DM+H criterion
max |DM_out - DM_in|         :     0.0000157585
max |H_out - H_in|      (eV) :     0.0006248745
SCF cycle converged after 12 iterations

Using DM_out to compute the final energy and forces
No. of atoms with KB's overlaping orbs in proc 0. Max # of overlaps:       4      26

siesta: E_KS(eV) =             -898.2599

siesta: Atomic forces (eV/Ang):
----------------------------------------
   Tot   -0.007277    0.000267    0.000039
----------------------------------------
   Max    2.587716
   Res    1.081535    sqrt( Sum f_i^2 / 3N )
----------------------------------------
   Max    2.587716    constrained

Stress tensor Voigt[x,y,z,yz,xz,xy] (kbar):     -154.33       -0.34       -0.05        0.03        0.62        0.37
(Free)E + p*V (eV/cell)     -866.1411
Target enthalpy (eV/cell)     -898.3293

siesta: Stress tensor (static) (eV/Ang**3):
         0.002546    0.000358    0.000569
         0.000358    0.000058    0.000086
         0.000569    0.000086    0.000138

siesta: Pressure (static):         -1.46426760  kBar

siesta: Stress tensor (total) (eV/Ang**3):
        -0.096325    0.000231    0.000387
         0.000231   -0.000210    0.000022
         0.000387    0.000022   -0.000029

siesta: Pressure (total):         51.57097107  kBar

siesta: Temp_ion =  127784.048 K

                     ====================================
                        Begin MD step =      6
                     ====================================

outcell: Unit cell vectors (Ang):
       10.000004    0.000000    0.000000
        0.000000   10.000004    0.000000
        0.000000    0.000000   10.000004

outcell: Cell vector modules (Ang)   :   10.000004   10.000004   10.000004
outcell: Cell angles (23,13,12) (deg):     90.0000     90.0000     90.0000
outcell: Cell volume (Ang**3)        :   1000.0012
<dSpData1D:S at geom step 6
  <sparsity:sparsity for geom step 6
    nrows_g=26 nrows=26 sparsity=1.0000 nnzs=676, refcount: 7>
  <dData1D:(new from dSpData1D) n=676, refcount: 1>
refcount: 1>
new_DM -- step:     6
Re-using DM from previous geometries...
Number of DMs in history: 1
 DM extrapolation coefficients: 
1   1.00000
New DM after history re-use:
<dSpData2D:SpM extrapolated using coords
  <sparsity:sparsity for geom step 6
    nrows_g=26 nrows=26 sparsity=1.0000 nnzs=676, refcount: 9>
  <dData2D:(temp array for extrapolation) n=676 m=1, refcount: 1>
refcount: 1>
No. of atoms with KB's overlaping orbs in proc 0. Max # of overlaps:       4      26

InitMesh: MESH = 90 x 90 x 90 = 729000
InitMesh: Mesh cutoff (required, used) =   200.000   223.865 Ry
New grid distribution [1]: sub = 2

        iscf     Eharris(eV)        E_KS(eV)     FreeEng(eV)     dDmax    Ef(eV) dHmax(eV)
   scf:    1     -898.153894     -898.234070     -898.303372  0.042952 -6.038837  0.555487
   scf:    2     -897.314254     -897.952101     -898.020228  0.126988 -6.191885  1.925504
   scf:    3     -898.299897     -898.246463     -898.315772  0.106315 -6.072647  0.148409
   scf:    4     -898.235522     -898.243481     -898.312479  0.046328 -6.150323  0.087411
   scf:    5     -898.247707     -898.246065     -898.315295  0.019530 -6.156368  0.077742
   scf:    6     -898.246826     -898.246958     -898.316273  0.020779 -6.192756  0.019140
   scf:    7     -898.246986     -898.247004     -898.316315  0.003628 -6.194608  0.006794
   scf:    8     -898.247024     -898.247025     -898.316340  0.003131 -6.196709  0.002074
   scf:    9     -898.247025     -898.247025     -898.316340  0.000566 -6.196627  0.001306
   scf:   10     -898.247025     -898.247025     -898.316340  0.000035 -6.196670  0.001127
   scf:   11     -898.247026     -898.247026     -898.316340  0.000242 -6.196599  0.000526

SCF Convergence by DM+H criterion
max |DM_out - DM_in|         :     0.0002417146
max |H_out - H_in|      (eV) :     0.0005255779
SCF cycle converged after 11 iterations

Using DM_out to compute the final energy and forces
No. of atoms with KB's overlaping orbs in proc 0. Max # of overlaps:       4      26

siesta: E_KS(eV) =             -898.2470

siesta: Atomic forces (eV/Ang):
----------------------------------------
   Tot    0.009616   -0.000446    0.000103
----------------------------------------
   Max    2.678904
   Res    1.146856    sqrt( Sum f_i^2 / 3N )
----------------------------------------
   Max    2.678904    constrained

Stress tensor Voigt[x,y,z,yz,xz,xy] (kbar):     -154.00       -0.27        0.13        0.15        1.05        0.66
(Free)E + p*V (eV/cell)     -866.2472
Target enthalpy (eV/cell)     -898.3163

siesta: Stress tensor (static) (eV/Ang**3):
         0.002616    0.000458    0.000703
         0.000458    0.000082    0.000126
         0.000703    0.000126    0.000199

siesta: Pressure (static):         -1.54705368  kBar

siesta: Stress tensor (total) (eV/Ang**3):
        -0.096119    0.000412    0.000653
         0.000412   -0.000167    0.000092
         0.000653    0.000092    0.000079

siesta: Pressure (total):         51.38035863  kBar

siesta: Temp_ion =  127744.198 K

                     ====================================
                        Begin MD step =      7
                     ====================================

outcell: Unit cell vectors (Ang):
       10.000004    0.000000    0.000000
        0.000000   10.000004    0.000000
        0.000000    0.000000   10.000004

outcell: Cell vector modules (Ang)   :   10.000004   10.000004   10.000004
outcell: Cell angles (23,13,12) (deg):     90.0000     90.0000     90.0000
outcell: Cell volume (Ang**3)        :   1000.0012
<dSpData1D:S at geom step 7
  <sparsity:sparsity for geom step 7
    nrows_g=26 nrows=26 sparsity=1.0000 nnzs=676, refcount: 7>
  <dData1D:(new from dSpData1D) n=676, refcount: 1>
refcount: 1>
new_DM -- step:     7
Re-using DM from previous geometries...
Number of DMs in history: 1
 DM extrapolation coefficients: 
1   1.00000
New DM after history re-use:
<dSpData2D:SpM extrapolated using coords
  <sparsity:sparsity for geom step 7
    nrows_g=26 nrows=26 sparsity=1.0000 nnzs=676, refcount: 9>
  <dData2D:(temp array for extrapolation) n=676 m=1, refcount: 1>
refcount: 1>
Note: For starting DM, Qtot, Tr[D*S] =         14.00000000         14.04929139
No. of atoms with KB's overlaping orbs in proc 0. Max # of overlaps:       4      26

InitMesh: MESH = 90 x 90 x 90 = 729000
InitMesh: Mesh cutoff (required, used) =   200.000   223.865 Ry
New grid distribution [1]: sub = 2

        iscf     Eharris(eV)        E_KS(eV)     FreeEng(eV)     dDmax    Ef(eV) dHmax(eV)
   scf:    1     -898.067069     -898.256963     -898.326223  0.084673 -6.494048  0.856894
   scf:    2     -894.684106     -897.161393     -897.225615  0.238745 -6.333169  3.699211
   scf:    3     -898.516018     -898.304481     -898.373769  0.206184 -6.478158  0.125917
   scf:    4     -898.297859     -898.303614     -898.372767  0.047233 -6.465563  0.145215
   scf:    5     -898.302009     -898.303221     -898.372239  0.012099 -6.452342  0.051768
   scf:    6     -898.306638     -898.306352     -898.375663  0.040670 -6.434705  0.020398
   scf:    7     -898.306361     -898.306373     -898.375687  0.003373 -6.434509  0.008666
   scf:    8     -898.306387     -898.306383     -898.375696  0.001316 -6.428858  0.001074
   scf:    9     -898.306383     -898.306383     -898.375696  0.000216 -6.428746  0.000775

SCF Convergence by DM+H criterion
max |DM_out - DM_in|         :     0.0002164747
max |H_out - H_in|      (eV) :     0.0007753968
SCF cycle converged after 9 iterations

Using DM_out to compute the final energy and forces
No. of atoms with KB's overlaping orbs in proc 0. Max # of overlaps:       4      26

siesta: E_KS(eV) =             -898.3064

siesta: Atomic forces (eV/Ang):
----------------------------------------
   Tot   -0.009955    0.000354   -0.000763
----------------------------------------
   Max    2.450426
   Res    1.009774    sqrt( Sum f_i^2 / 3N )
----------------------------------------
   Max    2.450426    constrained

Stress tensor Voigt[x,y,z,yz,xz,xy] (kbar):     -155.86       -0.23        0.23        0.22        1.15        0.76
(Free)E + p*V (eV/cell)     -865.9507
Target enthalpy (eV/cell)     -898.3757

siesta: Stress tensor (static) (eV/Ang**3):
         0.001502    0.000454    0.000662
         0.000453    0.000083    0.000133
         0.000662    0.000133    0.000214

siesta: Pressure (static):         -0.96039936  kBar

siesta: Stress tensor (total) (eV/Ang**3):
        -0.097277    0.000474    0.000718
         0.000474   -0.000144    0.000134
         0.000718    0.000134    0.000146

siesta: Pressure (total):         51.95050705  kBar

siesta: Temp_ion =  127853.987 K

                     ====================================
                        Begin MD step =      8
                     ====================================

outcell: Unit cell vectors (Ang):
       10.000004    0.000000    0.000000
        0.000000   10.000004    0.000000
        0.000000    0.000000   10.000004

outcell: Cell vector modules (Ang)   :   10.000004   10.000004   10.000004
outcell: Cell angles (23,13,12) (deg):     90.0000     90.0000     90.0000
outcell: Cell volume (Ang**3)        :   1000.0012
<dSpData1D:S at geom step 8
  <sparsity:sparsity for geom step 8
    nrows_g=26 nrows=26 sparsity=1.0000 nnzs=676, refcount: 7>
  <dData1D:(new from dSpData1D) n=676, refcount: 1>
refcount: 1>
new_DM -- step:     8
Re-using DM from previous geometries...
Number of DMs in history: 1
 DM extrapolation coefficients: 
1   1.00000
New DM after history re-use:
<dSpData2D:SpM extrapolated using coords
  <sparsity:sparsity for geom step 8
    nrows_g=26 nrows=26 sparsity=1.0000 nnzs=676, refcount: 9>
  <dData2D:(temp array for extrapolation) n=676 m=1, refcount: 1>
refcount: 1>
Note: For starting DM, Qtot, Tr[D*S] =         14.00000000         14.07074562
No. of atoms with KB's overlaping orbs in proc 0. Max # of overlaps:       4      26

InitMesh: MESH = 90 x 90 x 90 = 729000
InitMesh: Mesh cutoff (required, used) =   200.000   223.865 Ry
New grid distribution [1]: sub = 2

        iscf     Eharris(eV)        E_KS(eV)     FreeEng(eV)     dDmax    Ef(eV) dHmax(eV)
   scf:    1     -897.565018     -898.124311     -898.193242  0.125623 -6.914761  1.103315
   scf:    2     -892.727372     -896.462517     -896.504447  0.525923 -6.584209  4.313551
   scf:    3     -898.529831     -898.185611     -898.254665  0.437299 -6.869495  0.282369
   scf:    4     -898.167516     -898.186201     -898.255030  0.096614 -6.851995  0.263674
   scf:    5     -898.111804     -898.156599     -898.222499  0.090988 -6.809809  0.248284
   scf:    6     -898.205040     -898.187583     -898.256291  0.084401 -6.761900  0.074329
   scf:    7     -898.188821     -898.192701     -898.262005  0.070083 -6.765553  0.024068
   scf:    8     -898.193069     -898.193120     -898.262423  0.016125 -6.763686  0.019054
   scf:    9     -898.193105     -898.193129     -898.262440  0.003938 -6.752393  0.003030
   scf:   10     -898.193144     -898.193137     -898.262447  0.000956 -6.752928  0.001940
   scf:   11     -898.193147     -898.193144     -898.262451  0.001564 -6.752007  0.001939
   scf:   12     -898.193144     -898.193144     -898.262451  0.000097 -6.751962  0.001865
   scf:   13     -898.193144     -898.193144     -898.262451  0.000188 -6.751498  0.000270

SCF Convergence by DM+H criterion
max |DM_out - DM_in|         :     0.0001882469
max |H_out - H_in|      (eV) :     0.0002698369
SCF cycle converged after 13 iterations

Using DM_out to compute the final energy and forces
No. of atoms with KB's overlaping orbs in proc 0. Max # of overlaps:       4      26

siesta: E_KS(eV) =             -898.1931

siesta: Atomic forces (eV/Ang):
----------------------------------------
   Tot    0.010360   -0.000689   -0.000204
----------------------------------------
   Max    1.932418
   Res    0.714106    sqrt( Sum f_i^2 / 3N )
----------------------------------------
   Max    1.932418    constrained

Stress tensor Voigt[x,y,z,yz,xz,xy] (kbar):     -161.38       -0.30        0.14        0.14        0.71        0.54
(Free)E + p*V (eV/cell)     -864.6520
Target enthalpy (eV/cell)     -898.2625

siesta: Stress tensor (static) (eV/Ang**3):
        -0.001809    0.000302    0.000358
         0.000302    0.000022    0.000063
         0.000358    0.000063    0.000114

siesta: Pressure (static):          0.89351294  kBar

siesta: Stress tensor (total) (eV/Ang**3):
        -0.100727    0.000337    0.000442
         0.000337   -0.000190    0.000089
         0.000442    0.000089    0.000085

siesta: Pressure (total):         53.84989351  kBar

siesta: Temp_ion =  127433.804 K

                     ====================================
                        Begin MD step =      9
                     ====================================

outcell: Unit cell vectors (Ang):
       10.000004    0.000000    0.000000
        0.000000   10.000004    0.000000
        0.000000    0.000000   10.000004

outcell: Cell vector modules (Ang)   :   10.000004   10.000004   10.000004
outcell: Cell angles (23,13,12) (deg):     90.0000     90.0000     90.0000
outcell: Cell volume (Ang**3)        :   1000.0012
<dSpData1D:S at geom step 9
  <sparsity:sparsity for geom step 9
    nrows_g=26 nrows=26 sparsity=1.0000 nnzs=676, refcount: 7>
  <dData1D:(new from dSpData1D) n=676, refcount: 1>
refcount: 1>
new_DM -- step:     9
Re-using DM from previous geometries...
Number of DMs in history: 1
 DM extrapolation coefficients: 
1   1.00000
New DM after history re-use:
<dSpData2D:SpM extrapolated using coords
  <sparsity:sparsity for geom step 9
    nrows_g=26 nrows=26 sparsity=1.0000 nnzs=676, refcount: 9>
  <dData2D:(temp array for extrapolation) n=676 m=1, refcount: 1>
refcount: 1>
Note: For starting DM, Qtot, Tr[D*S] =         14.00000000         14.04605269
No. of atoms with KB's overlaping orbs in proc 0. Max # of overlaps:       4      26

InitMesh: MESH = 90 x 90 x 90 = 729000
InitMesh: Mesh cutoff (required, used) =   200.000   223.865 Ry
New grid distribution [1]: sub = 2

        iscf     Eharris(eV)        E_KS(eV)     FreeEng(eV)     dDmax    Ef(eV) dHmax(eV)
   scf:    1     -895.802283     -897.190459     -897.255220  0.166176 -7.243981  0.464152
   scf:    2     -894.725741     -896.494901     -896.496868  0.694645 -7.063673  1.690711
   scf:    3     -897.472813     -897.145507     -897.208443  0.359904 -7.204782  0.318967
   scf:    4     -897.130715     -897.138183     -897.200522  0.008196 -7.204118  0.329729
   scf:    5     -897.068381     -897.213148     -897.279261  0.318230 -7.183914  0.161310
   scf:    6     -896.778173     -897.037691     -897.084917  0.197670 -7.163847  0.369978
   scf:    7     -896.933277     -896.986881     -897.028265  0.036005 -7.165121  0.415358
   scf:    8     -896.298134     -897.063766     -897.119391  0.620039 -7.147393  0.335602
   scf:    9     -897.263419     -897.237499     -897.306810  0.259362 -7.152204  0.036421
   scf:   10     -897.238308     -897.237929     -897.307236  0.004741 -7.152622  0.035410
   scf:   11     -897.161422     -897.215558     -897.281839  0.115303 -7.155236  0.120736
   scf:   12     -897.232795     -897.238334     -897.307624  0.112991 -7.152389  0.015029
   scf:   13     -897.222845     -897.234111     -897.302536  0.057982 -7.154028  0.055883
   scf:   14     -897.239673     -897.238568     -897.307722  0.038161 -7.153064  0.017692
   scf:   15     -897.238694     -897.238651     -897.307847  0.003897 -7.151499  0.009365
   scf:   16     -897.238527     -897.238631     -897.307876  0.005458 -7.148634  0.005687
   scf:   17     -897.238666     -897.238651     -897.307885  0.001604 -7.148282  0.005249
   scf:   18     -897.238662     -897.238657     -897.307886  0.000622 -7.147566  0.005167
   scf:   19     -897.238653     -897.238658     -897.307886  0.001887 -7.146134  0.002988
   scf:   20     -897.238651     -897.238655     -897.307887  0.000498 -7.146342  0.002730
   scf:   21     -897.238660     -897.238658     -897.307889  0.000582 -7.146180  0.001106
   scf:   22     -897.238658     -897.238658     -897.307889  0.000049 -7.146163  0.001086
   scf:   23     -897.238655     -897.238657     -897.307889  0.000361 -7.146072  0.000596
   scf:   24     -897.238657     -897.238657     -897.307889  0.000026 -7.146086  0.000532

SCF Convergence by DM+H criterion
max |DM_out - DM_in|         :     0.0000257268
max |H_out - H_in|      (eV) :     0.0005318025
SCF cycle converged after 24 iterations

Using DM_out to compute the final energy and forces
No. of atoms with KB's overlaping orbs in proc 0. Max # of overlaps:       4      26

siesta: E_KS(eV) =             -897.2387

siesta: Atomic forces (eV/Ang):
----------------------------------------
   Tot   -0.002753   -0.001127   -0.000433
----------------------------------------
   Max    3.749300
   Res    1.573350    sqrt( Sum f_i^2 / 3N )
----------------------------------------
   Max    3.749300    constrained

Stress tensor Voigt[x,y,z,yz,xz,xy] (kbar):     -172.65       -0.67       -0.42       -0.25       -0.42       -0.03
(Free)E + p*V (eV/cell)     -861.1599
Target enthalpy (eV/cell)     -897.3079

siesta: Stress tensor (static) (eV/Ang**3):
        -0.009149   -0.000020   -0.000307
        -0.000020   -0.000210   -0.000192
        -0.000307   -0.000192   -0.000252

siesta: Pressure (static):          5.13302915  kBar

siesta: Stress tensor (total) (eV/Ang**3):
        -0.107761   -0.000021   -0.000260
        -0.000021   -0.000418   -0.000156
        -0.000260   -0.000156   -0.000265

siesta: Pressure (total):         57.91537244  kBar

siesta: Temp_ion =  124707.225 K

                     ====================================
                        Begin MD step =     10
                     ====================================

outcell: Unit cell vectors (Ang):
       10.000004    0.000000    0.000000
        0.000000   10.000004    0.000000
        0.000000    0.000000   10.000004

outcell: Cell vector modules (Ang)   :   10.000004   10.000004   10.000004
outcell: Cell angles (23,13,12) (deg):     90.0000     90.0000     90.0000
outcell: Cell volume (Ang**3)        :   1000.0012
<dSpData1D:S at geom step 10
  <sparsity:sparsity for geom step 10
    nrows_g=26 nrows=26 sparsity=1.0000 nnzs=676, refcount: 7>
  <dData1D:(new from dSpData1D) n=676, refcount: 1>
refcount: 1>
new_DM -- step:    10
Re-using DM from previous geometries...
Number of DMs in history: 1
 DM extrapolation coefficients: 
1   1.00000
New DM after history re-use:
<dSpData2D:SpM extrapolated using coords
  <sparsity:sparsity for geom step 10
    nrows_g=26 nrows=26 sparsity=1.0000 nnzs=676, refcount: 9>
  <dData2D:(temp array for extrapolation) n=676 m=1, refcount: 1>
refcount: 1>
Note: For starting DM, Qtot, Tr[D*S] =         14.00000000         13.95844534
No. of atoms with KB's overlaping orbs in proc 0. Max # of overlaps:       4      26

InitMesh: MESH = 90 x 90 x 90 = 729000
InitMesh: Mesh cutoff (required, used) =   200.000   223.865 Ry
New grid distribution [1]: sub = 2

        iscf     Eharris(eV)        E_KS(eV)     FreeEng(eV)     dDmax    Ef(eV) dHmax(eV)
   scf:    1     -889.204647     -893.644447     -893.657749  0.390158 -7.405290  2.863611
   scf:    2     -886.742852     -892.317241     -892.317246  0.933163 -5.589748  5.969325
   scf:    3     -893.701442     -893.295249     -893.310518  0.195288 -6.877754  3.374259
   scf:    4     -893.254373     -893.274926     -893.288171  0.010427 -6.858325  3.396625
   scf:    5     -893.293282     -893.284113     -893.298082  0.002647 -6.864744  3.376861
   scf:    6     -894.660540     -894.272862     -894.342172  0.492928 -7.130089  1.209187
   scf:    7     -894.303084     -894.334735     -894.397465  0.189079 -7.180742  0.534888
   scf:    8     -891.717230     -893.461277     -893.467755  0.360472 -7.382271  3.526345
   scf:    9     -894.506478     -894.192096     -894.232260  0.160312 -7.230670  0.838290
   scf:   10     -892.959585     -893.693267     -893.700112  0.147088 -7.349595  2.871822
   scf:   11     -893.803085     -893.749605     -893.755785  0.013510 -7.339538  2.675423
   scf:   12     -893.678260     -893.936582     -893.936599  0.167709 -7.141594  1.078455
   scf:   13     -893.711014     -893.831700     -893.831700  0.039901 -7.080099  1.524086
   scf:   14     -893.950467     -893.894238     -893.894243  0.046318 -7.051309  1.339965
   scf:   15     -891.028927     -893.481788     -893.496515  1.045266 -7.038303  2.740567
   scf:   16     -892.198662     -893.923789     -893.923791  1.097346 -7.134921  1.139080
   scf:   17     -893.737464     -893.838532     -893.838532  0.035333 -7.168848  1.498610
   scf:   18     -892.710140     -894.006453     -894.060526  0.734249 -7.241252  1.004873
   scf:   19     -892.200409     -893.250148     -893.250150  0.413731 -7.117168  3.123139
   scf:   20     -891.003954     -893.694071     -893.694071  1.133009 -7.107548  3.046107
   scf:   21     -890.061897     -893.340445     -893.342675  1.073982 -7.150569  2.654323
   scf:   22     -893.441786     -893.488471     -893.488940  0.276229 -7.213500  1.930277
   scf:   23     -893.165201     -893.349438     -893.349438  0.134569 -7.133770  2.679579
   scf:   24     -892.383250     -893.959459     -893.969985  0.827752 -7.269669  1.443962
   scf:   25     -891.486754     -893.534814     -893.539687  0.809339 -7.153937  2.002882
   scf:   26     -891.060330     -893.653848     -893.653907  1.125601 -7.352034  3.115400
   scf:   27     -892.316840     -893.947669     -893.994938  0.899786 -7.074158  1.899540
   scf:   28     -892.774816     -894.008559     -894.015568  0.855608 -7.203399  1.154241
   scf:   29     -894.204965     -894.197026     -894.238047  0.359001 -7.211039  0.542386
   scf:   30     -894.002115     -894.115042     -894.142971  0.139500 -7.215598  0.921229
   scf:   31     -893.640036     -893.922559     -893.924541  0.233392 -7.258626  1.834347
   scf:   32     -893.873971     -893.969237     -893.969306  0.112076 -7.147395  0.839481
   scf:   33     -892.918430     -893.605822     -893.605822  0.127849 -7.230068  3.623240
   scf:   34     -893.903472     -893.760747     -893.760747  0.028341 -7.307522  2.898008
   scf:   35     -890.112235     -893.384969     -893.388907  1.109049 -7.109687  2.660224
   scf:   36     -893.168366     -893.280106     -893.280154  0.042501 -7.057836  3.074576
   scf:   37     -891.377944     -893.837042     -893.837045  1.097871 -7.318651  2.378928
   scf:   38     -893.990166     -893.916807     -893.917414  0.019963 -7.254985  1.825148
   scf:   39     -893.630434     -893.780821     -893.780821  0.030530 -7.332201  2.695845
   scf:   40     -894.097346     -893.964384     -893.968405  0.099190 -7.247328  1.581310
   scf:   41     -893.783179     -893.882869     -893.882927  0.070849 -7.291814  2.112826
   scf:   42     -890.162097     -893.370113     -893.370179  1.135638 -7.076924  2.826230
   scf:   43     -893.266340     -893.319658     -893.319665  0.022985 -7.042402  3.085041
   scf:   44     -892.682332     -894.072588     -894.092395  0.887743 -7.209941  0.935233
   scf:   45     -890.426146     -893.312425     -893.312427  0.850749 -7.056772  2.952894
   scf:   46     -893.633056     -893.507048     -893.512049  0.188458 -7.146979  2.201422
   scf:   47     -892.168227     -893.947854     -893.947941  1.047395 -7.264701  1.622787
   scf:   48     -890.821251     -893.488149     -893.490641  1.054346 -7.139700  2.243079
   scf:   49     -893.401847     -893.446715     -893.447240  0.045148 -7.121459  2.367510
   scf:   50     -893.456085     -893.451431     -893.452308  0.003247 -7.120975  2.370937
   scf:   51     -893.552186     -893.510180     -893.512723  0.106153 -7.127849  2.212438
   scf:   52     -893.945951     -893.984613     -894.009685  0.479579 -7.184666  0.948450
   scf:   53     -892.771695     -893.591675     -893.602186  0.441237 -7.154385  2.038383
   scf:   54     -892.986447     -893.361564     -893.361589  0.298596 -7.116279  2.677790
   scf:   55     -893.892872     -893.904807     -893.948233  0.537845 -7.272672  0.643493
   scf:   56     -893.372508     -893.850155     -893.889442  0.401421 -7.222306  1.479241
   scf:   57     -893.132632     -893.514026     -893.519554  0.166934 -7.174105  2.134938
   scf:   58     -893.230242     -893.395561     -893.397059  0.162761 -7.110527  2.528308
   scf:   59     -893.182607     -893.292599     -893.292612  0.040632 -7.034181  2.980782
   scf:   60     -890.378097     -893.562851     -893.562853  1.164510 -7.352552  3.301938
   scf:   61     -894.079354     -894.016698     -894.024262  0.130746 -7.157166  0.624258
   scf:   62     -892.640181     -893.983337     -894.032570  0.918122 -7.141513  1.634542
   scf:   63     -894.418652     -894.305427     -894.367678  0.314430 -7.190792  0.410565
   scf:   64     -893.568244     -894.131154     -894.159725  0.522631 -7.183730  0.757613
   scf:   65     -894.202606     -894.167771     -894.202301  0.032390 -7.188699  0.741774
   scf:   66     -894.039447     -894.105911     -894.131002  0.051077 -7.195393  0.924885
   scf:   67     -894.372816     -894.358543     -894.424259  0.365322 -7.188336  0.153492
   scf:   68     -894.296537     -894.339655     -894.408224  0.108895 -7.194569  0.414877
   scf:   69     -894.365334     -894.360743     -894.427880  0.090603 -7.208442  0.111419
   scf:   70     -894.328733     -894.349278     -894.418141  0.057296 -7.215154  0.205446
   scf:   71     -894.332948     -894.356533     -894.421606  0.128859 -7.220879  0.186843
   scf:   72     -894.307358     -894.348279     -894.417222  0.120015 -7.222860  0.274919
   scf:   73     -894.358735     -894.360059     -894.427451  0.054927 -7.244618  0.150112
   scf:   74     -894.361610     -894.361434     -894.428826  0.008143 -7.233197  0.032526
   scf:   75     -894.361742     -894.361617     -894.428856  0.005316 -7.234631  0.033072
   scf:   76     -894.361750     -894.361689     -894.428887  0.001604 -7.233981  0.032444
   scf:   77     -894.361453     -894.361699     -894.429009  0.009402 -7.250951  0.011747
   scf:   78     -894.362065     -894.361898     -894.429061  0.003487 -7.249897  0.009862
   scf:   79     -894.362021     -894.361962     -894.429070  0.001477 -7.249944  0.010543
   scf:   80     -894.362060     -894.362034     -894.429123  0.004367 -7.251755  0.005274
   scf:   81     -894.362023     -894.362028     -894.429124  0.000178 -7.251866  0.004838
   scf:   82     -894.361927     -894.361980     -894.429127  0.001433 -7.252215  0.003295
   scf:   83     -894.361990     -894.361985     -894.429128  0.000453 -7.251746  0.002292
   scf:   84     -894.361985     -894.361985     -894.429128  0.000040 -7.251816  0.002130
   scf:   85     -894.361983     -894.361984     -894.429128  0.000217 -7.252705  0.001530
   scf:   86     -894.361997     -894.361991     -894.429129  0.000286 -7.252759  0.000934

SCF Convergence by DM+H criterion
max |DM_out - DM_in|         :     0.0002859402
max |H_out - H_in|      (eV) :     0.0009342984
SCF cycle converged after 86 iterations

Using DM_out to compute the final energy and forces
No. of atoms with KB's overlaping orbs in proc 0. Max # of overlaps:       4      26

siesta: E_KS(eV) =             -894.3620

siesta: Atomic forces (eV/Ang):
----------------------------------------
   Tot   -0.000816   -0.002988    0.001362
----------------------------------------
   Max    9.393887
   Res    4.652671    sqrt( Sum f_i^2 / 3N )
----------------------------------------
   Max    9.393887    constrained

Stress tensor Voigt[x,y,z,yz,xz,xy] (kbar):     -189.47       -1.99       -2.06       -1.33       -1.84       -0.61
(Free)E + p*V (eV/cell)     -854.1671
Target enthalpy (eV/cell)     -894.4291

siesta: Stress tensor (static) (eV/Ang**3):
        -0.021784   -0.000306   -0.001171
        -0.000306   -0.001018   -0.000861
        -0.001171   -0.000861   -0.001266

siesta: Pressure (static):         12.85377323  kBar

siesta: Stress tensor (total) (eV/Ang**3):
        -0.118258   -0.000383   -0.001147
        -0.000383   -0.001244   -0.000832
        -0.001147   -0.000832   -0.001284

siesta: Pressure (total):         64.50678309  kBar

siesta: Temp_ion =  117281.670 K

                     ====================================
                        Begin MD step =     11
                     ====================================

outcell: Unit cell vectors (Ang):
       10.000004    0.000000    0.000000
        0.000000   10.000004    0.000000
        0.000000    0.000000   10.000004

outcell: Cell vector modules (Ang)   :   10.000004   10.000004   10.000004
outcell: Cell angles (23,13,12) (deg):     90.0000     90.0000     90.0000
outcell: Cell volume (Ang**3)        :   1000.0012
<dSpData1D:S at geom step 11
  <sparsity:sparsity for geom step 11
    nrows_g=26 nrows=26 sparsity=1.0000 nnzs=676, refcount: 7>
  <dData1D:(new from dSpData1D) n=676, refcount: 1>
refcount: 1>
new_DM -- step:    11
Re-using DM from previous geometries...
Number of DMs in history: 1
 DM extrapolation coefficients: 
1   1.00000
New DM after history re-use:
<dSpData2D:SpM extrapolated using coords
  <sparsity:sparsity for geom step 11
    nrows_g=26 nrows=26 sparsity=1.0000 nnzs=676, refcount: 9>
  <dData2D:(temp array for extrapolation) n=676 m=1, refcount: 1>
refcount: 1>
Note: For starting DM, Qtot, Tr[D*S] =         14.00000000         13.87853609
No. of atoms with KB's overlaping orbs in proc 0. Max # of overlaps:       4      26

InitMesh: MESH = 90 x 90 x 90 = 729000
InitMesh: Mesh cutoff (required, used) =   200.000   223.865 Ry
New grid distribution [1]: sub = 2

        iscf     Eharris(eV)        E_KS(eV)     FreeEng(eV)     dDmax    Ef(eV) dHmax(eV)
   scf:    1     -868.109955     -884.588772     -884.588772  0.576831 -6.666756 11.119396
   scf:    2     -699.433933     -833.203270     -833.203271  2.342753  1.823808 40.531255
   scf:    3     -915.948723     -884.307192     -884.312885  1.100828 -5.189906 11.890378
   scf:    4     -859.235633     -872.978366     -872.981520  0.467370 -1.958055 22.319798
   scf:    5     -885.871676     -879.733299     -879.743560  0.247191 -3.973026 16.435736
   scf:    6     -847.745990     -881.142978     -881.142978  1.684140 -6.903232 16.378879
   scf:    7     -881.950343     -881.606964     -881.606964  0.075822 -6.184550 16.136064
   scf:    8     -885.241168     -883.463706     -883.463706  0.072023 -6.448674 13.601957
   scf:    9     -887.140395     -885.364577     -885.364577  0.115172 -6.117676 11.085361
   scf:   10     -883.705009     -884.548779     -884.548779  0.057910 -6.158894 12.125718
   scf:   11     -886.381146     -885.489320     -885.489320  0.055920 -6.238341 10.581431
   scf:   12     -843.687868     -878.988071     -878.989088  1.793499 -5.379882 14.943110
   scf:   13     -887.912418     -883.894769     -883.901172  0.205267 -5.728349 11.300539
   scf:   14     -881.873988     -883.249026     -883.275610  0.641863 -4.781499 13.067215
   scf:   15     -878.731196     -889.109780     -889.109794  1.096493 -5.716341  5.791651
   scf:   16     -890.760359     -890.910822     -890.920140  0.410955 -5.636592  1.021257
   scf:   17     -889.883490     -890.618674     -890.628433  0.201223 -5.810519  2.454466
   scf:   18     -890.799199     -890.961892     -890.995329  0.230731 -5.818878  0.717813
   scf:   19     -890.357408     -890.730088     -890.773530  0.164768 -5.818419  2.264623
   scf:   20     -890.956118     -890.866373     -890.897929  0.159358 -5.752533  1.651426
   scf:   21     -883.521484     -888.145511     -888.191873  0.755958 -5.825174  7.229763
   scf:   22     -890.598393     -889.493851     -889.539086  0.305433 -5.913682  5.131127
   scf:   23     -891.130911     -890.431865     -890.470830  0.258383 -5.927952  3.078934
   scf:   24     -891.005049     -890.971841     -890.988250  0.319560 -5.970426  0.285321
   scf:   25     -890.868110     -890.940784     -890.946436  0.080139 -5.987186  0.958896
   scf:   26     -890.869880     -890.908273     -890.910952  0.020993 -5.991879  1.319578
   scf:   27     -890.912995     -890.910650     -890.913613  0.001364 -6.004221  1.317935
   scf:   28     -890.824037     -890.869759     -890.870717  0.021850 -5.995624  1.639272
   scf:   29     -887.576966     -890.059907     -890.126812  0.572450 -5.997152  3.636926
   scf:   30     -889.598594     -890.790065     -890.790597  0.578865 -6.055851  2.215134
   scf:   31     -890.725019     -890.758392     -890.758747  0.019223 -6.034565  2.334237
   scf:   32     -890.702749     -890.731082     -890.731347  0.014272 -6.033452  2.455188
   scf:   33     -890.763481     -890.747436     -890.747854  0.004750 -6.029918  2.363884
   scf:   34     -891.034637     -890.913657     -890.923581  0.066410 -6.011460  1.328053
   scf:   35     -890.667274     -890.802299     -890.803190  0.047178 -6.029046  2.079547
   scf:   36     -878.888793     -887.452008     -887.500867  1.077967 -5.964663  7.229071
   scf:   37     -888.730833     -890.777561     -890.779227  1.086285 -6.016009  2.191319
   scf:   38     -890.801058     -890.789399     -890.791387  0.004406 -6.013516  2.129363
   scf:   39     -890.791110     -890.790258     -890.792078  0.001355 -6.010483  2.122272
   scf:   40     -890.821774     -890.806189     -890.808550  0.005485 -6.004352  2.030388
   scf:   41     -890.914988     -890.863181     -890.869652  0.022462 -5.997205  1.684922
   scf:   42     -890.731421     -890.800441     -890.803100  0.026265 -5.994211  2.046842
   scf:   43     -890.906702     -890.856379     -890.860799  0.017638 -5.996255  1.704605
   scf:   44     -875.885191     -886.422357     -886.456898  1.193487 -5.927724  8.287995
   scf:   45     -888.634868     -890.796111     -890.798654  1.207104 -5.985373  2.057648
   scf:   46     -890.849566     -890.823343     -890.827008  0.007037 -5.968610  1.887148
   scf:   47     -890.859019     -890.841433     -890.846504  0.006221 -5.962283  1.773412
   scf:   48     -890.809232     -890.825539     -890.829617  0.005236 -5.970936  1.877153
   scf:   49     -890.894417     -890.861089     -890.867402  0.016366 -5.973465  1.670601
   scf:   50     -890.779894     -890.821804     -890.825340  0.017812 -5.970675  1.898365
   scf:   51     -880.074025     -887.804760     -887.859636  1.031394 -5.918545  6.969736
   scf:   52     -889.192786     -890.836177     -890.840619  1.027386 -5.963783  1.805268
   scf:   53     -890.800181     -890.818418     -890.821752  0.005425 -5.971633  1.918047
   scf:   54     -890.817694     -890.818058     -890.821513  0.000555 -5.968230  1.915662
   scf:   55     -890.800659     -890.809412     -890.812413  0.002726 -5.972462  1.969231
   scf:   56     -890.910083     -890.861919     -890.869030  0.020501 -5.966253  1.654245
   scf:   57     -890.737540     -890.802433     -890.804913  0.022378 -5.975111  2.012418
   scf:   58     -878.212157     -887.244638     -887.293894  1.127843 -5.899094  7.619642
   scf:   59     -889.237001     -890.857250     -890.863934  1.113149 -5.958830  1.670246
   scf:   60     -890.794845     -890.826805     -890.831108  0.010509 -5.967196  1.863528
   scf:   61     -890.830970     -890.828892     -890.833237  0.001069 -5.969251  1.854569
   scf:   62     -890.858897     -890.844084     -890.849378  0.005543 -5.963989  1.758905
   scf:   63     -890.783422     -890.814425     -890.818039  0.010200 -5.971446  1.940227
   scf:   64     -890.895259     -890.856193     -890.863390  0.015554 -5.964914  1.687877
   scf:   65     -880.578468     -887.920719     -887.978371  1.027549 -5.901994  6.929469
   scf:   66     -889.210825     -890.835671     -890.840819  1.032215 -5.963599  1.807476
   scf:   67     -890.804300     -890.820165     -890.823970  0.006324 -5.973102  1.912353
   scf:   68     -890.833593     -890.826913     -890.831166  0.002394 -5.971869  1.871563
   scf:   69     -890.817493     -890.822222     -890.826177  0.002223 -5.969005  1.893706
   scf:   70     -890.914879     -890.870538     -890.878338  0.019243 -5.963283  1.595362
   scf:   71     -890.771390     -890.822910     -890.827238  0.018534 -5.970304  1.892131
   scf:   72     -881.809072     -888.348063     -888.410159  0.976204 -5.904817  6.454341
   scf:   73     -889.146567     -890.811509     -890.814896  0.979169 -5.973132  1.960218
   scf:   74     -890.807077     -890.809296     -890.812580  0.000816 -5.974176  1.973450
   scf:   75     -890.942229     -890.879892     -890.889593  0.025499 -5.962490  1.527475
   scf:   76     -890.862593     -890.871320     -890.880119  0.004299 -5.964213  1.587289
   scf:   77     -890.861367     -890.866371     -890.874462  0.002293 -5.968053  1.624139
   scf:   78     -890.910214     -890.888839     -890.899117  0.010051 -5.966955  1.473546
   scf:   79     -882.657706     -888.531422     -888.595254  0.931915 -5.918394  6.236838
   scf:   80     -889.600940     -890.872566     -890.881703  0.937097 -5.966556  1.582673
   scf:   81     -890.892241     -890.882510     -890.892726  0.004913 -5.965489  1.514066
   scf:   82     -890.908628     -890.895779     -890.907582  0.007364 -5.961241  1.415059
   scf:   83     -890.813173     -890.856134     -890.863265  0.019955 -5.969582  1.691896
   scf:   84     -890.851762     -890.853953     -890.860905  0.001045 -5.969338  1.705294
   scf:   85     -890.917473     -890.886804     -890.897238  0.013785 -5.963849  1.485937
   scf:   86     -886.958515     -889.866950     -889.936195  0.671062 -5.923864  4.227925
   scf:   87     -889.918600     -890.869471     -890.878212  0.677013 -5.965221  1.601615
   scf:   88     -890.891444     -890.880586     -890.890645  0.005345 -5.964199  1.526569
   scf:   89     -890.905164     -890.893056     -890.904736  0.007151 -5.959692  1.433546
   scf:   90     -890.836007     -890.865362     -890.873678  0.014340 -5.966177  1.629466
   scf:   91     -890.914388     -890.890561     -890.902009  0.010910 -5.964280  1.460148
   scf:   92     -890.882191     -890.886397     -890.897343  0.002013 -5.964815  1.489734
   scf:   93     -889.591047     -890.646105     -890.708506  0.427618 -5.936528  2.320686
   scf:   94     -890.433585     -890.911120     -890.925585  0.412278 -5.963068  1.305333
   scf:   95     -890.955702     -890.934388     -890.952568  0.017630 -5.961543  1.107412
   scf:   96     -890.954225     -890.944556     -890.964603  0.010035 -5.956918  1.003070
   scf:   97     -890.932343     -890.938543     -890.957530  0.006682 -5.959822  1.067234
   scf:   98     -890.838706     -890.892188     -890.903713  0.032843 -5.964697  1.446822
   scf:   99     -890.889682     -890.890938     -890.902536  0.001122 -5.964781  1.456233
   scf:  100     -890.479145     -890.885567     -890.938869  0.293258 -5.944861  1.245537
   scf:  101     -890.782794     -890.958587     -890.981293  0.240898 -5.960235  0.855738
   scf:  102     -890.942905     -890.950945     -890.972056  0.008385 -5.960756  0.942926
   scf:  103     -891.000902     -890.980942     -891.009878  0.045195 -5.955280  0.504760
   scf:  104     -890.909843     -890.950519     -890.971517  0.046146 -5.960664  0.948022
   scf:  105     -890.979094     -890.965699     -890.990229  0.018992 -5.959165  0.764662
   scf:  106     -890.996759     -890.984238     -891.014518  0.034044 -5.956596  0.429068
   scf:  107     -890.953942     -890.982790     -891.023971  0.079426 -5.953114  0.270311
   scf:  108     -890.850857     -890.954690     -890.976149  0.129302 -5.967456  0.910443
   scf:  109     -890.923025     -890.939507     -890.957994  0.015280 -5.967109  1.067630
   scf:  110     -891.004943     -890.988909     -891.021596  0.083371 -5.961157  0.274482
   scf:  111     -890.987349     -890.990143     -891.027136  0.029670 -5.961102  0.025919
   scf:  112     -890.495720     -890.819046     -890.876219  0.198585 -5.971960  1.571541
   scf:  113     -890.816979     -890.970098     -890.996336  0.269533 -5.977791  0.721037
   scf:  114     -890.978408     -890.988966     -891.027359  0.081247 -5.975894  0.005062
   scf:  115     -890.990205     -890.989771     -891.026980  0.009119 -5.976470  0.077030
   scf:  116     -890.983502     -890.987358     -891.026979  0.018215 -5.975785  0.082133
   scf:  117     -890.978209     -890.987632     -891.020706  0.047980 -5.977614  0.331754
   scf:  118     -890.989734     -890.990014     -891.026545  0.023959 -5.978041  0.115596
   scf:  119     -890.986358     -890.988708     -891.027345  0.015526 -5.978736  0.018193
   scf:  120     -890.990469     -890.989938     -891.026855  0.012551 -5.979079  0.091851
   scf:  121     -890.987499     -890.988981     -891.027366  0.011028 -5.979102  0.003886
   scf:  122     -890.989247     -890.989116     -891.027365  0.001015 -5.978977  0.005434
   scf:  123     -890.988879     -890.988999     -891.027366  0.000846 -5.978949  0.002990
   scf:  124     -890.989083     -890.989041     -891.027367  0.000340 -5.979079  0.001288
   scf:  125     -890.989046     -890.989043     -891.027367  0.000055 -5.979118  0.001235
   scf:  126     -890.989078     -890.989061     -891.027367  0.000133 -5.979001  0.001286
   scf:  127     -890.989035     -890.989048     -891.027367  0.000074 -5.978969  0.001141
   scf:  128     -890.989038     -890.989043     -891.027367  0.000085 -5.979174  0.001181
   scf:  129     -890.989042     -890.989043     -891.027367  0.000038 -5.979307  0.001154
   scf:  130     -890.989045     -890.989044     -891.027367  0.000141 -5.979268  0.001069
   scf:  131     -890.989006     -890.989025     -891.027367  0.000156 -5.979103  0.001002
   scf:  132     -890.989016     -890.989020     -891.027367  0.000036 -5.979167  0.000924

SCF Convergence by DM+H criterion
max |DM_out - DM_in|         :     0.0000363114
max |H_out - H_in|      (eV) :     0.0009244571
SCF cycle converged after 132 iterations

Using DM_out to compute the final energy and forces
No. of atoms with KB's overlaping orbs in proc 0. Max # of overlaps:       4      26

siesta: E_KS(eV) =             -890.9890

siesta: Atomic forces (eV/Ang):
----------------------------------------
   Tot    0.002280    0.005932    0.004554
----------------------------------------
   Max   13.864872
   Res    8.527614    sqrt( Sum f_i^2 / 3N )
----------------------------------------
   Max   13.864872    constrained

Stress tensor Voigt[x,y,z,yz,xz,xy] (kbar):     -187.22       -5.93       -7.28       -5.03       -0.19        0.75
(Free)E + p*V (eV/cell)     -849.3280
Target enthalpy (eV/cell)     -891.0274

siesta: Stress tensor (static) (eV/Ang**3):
        -0.026493    0.000879   -0.000151
         0.000879   -0.003295   -0.003033
        -0.000152   -0.003033   -0.004351

siesta: Pressure (static):         18.23232376  kBar

siesta: Stress tensor (total) (eV/Ang**3):
        -0.116854    0.000467   -0.000117
         0.000466   -0.003701   -0.003139
        -0.000118   -0.003139   -0.004543

siesta: Pressure (total):         66.80971163  kBar

siesta: Temp_ion =  109875.245 K

                     ====================================
                        Begin MD step =     12
                     ====================================

outcell: Unit cell vectors (Ang):
[...]
   scf:   70     -813.575782     -876.449687     -876.449687  1.996841 -2.900265 20.999097
   scf:   71     -856.467154     -867.225903     -867.225903  0.467009 -0.450303 28.488961
   scf:   72     -812.926659     -875.799300     -875.799300  1.998470 -4.647250 20.030614
   scf:   73     -873.544358     -874.791422     -874.791422  0.103660 -6.987978 21.279485
   scf:   74     -875.838477     -875.344524     -875.344524  0.046897 -4.756354 18.724890
   scf:   75     -876.036534     -875.709353     -875.709353  0.060443 -5.481704 19.132160
   scf:   76     -672.264287     -834.804801     -834.804801  1.998050 -2.097373 43.537847
   scf:   77     -816.891306     -879.593628     -879.593628  1.996662 -4.267078 16.409712
   scf:   78     -734.551057     -854.417934     -854.417934  1.997603 -0.522122 38.286279
   scf:   79     -887.919619     -882.925184     -882.925191  1.333613 -3.922202 15.304361
   scf:   80     -880.802449     -881.944007     -881.944008  0.148892 -3.322839 16.770550
   scf:   81     -874.203386     -878.498717     -878.498717  0.151318 -1.690507 22.799984
   scf:   82     -871.615370     -876.017409     -876.017410  0.443538 -3.816433 20.269155
   scf:   83     -869.592059     -872.908204     -872.908204  0.173594 -3.004531 22.826134
   scf:   84     -802.083595     -871.662196     -871.662196  1.998586-12.929603 27.530150
   scf:   85     -884.884253     -879.022013     -879.029967  0.394551 -4.086505 15.369320
   scf:   86     -876.515236     -877.796804     -877.796804  0.056904 -4.621895 17.177359
   scf:   87     -864.884395     -881.429066     -881.435677  1.713830 -5.182383 12.432684
   scf:   88     -884.324842     -883.013165     -883.013324  0.168865 -7.000000 12.407623
   scf:   89     -862.024125     -879.231287     -879.231287  1.452626 -4.184468 15.890651
   scf:   90     -759.814421     -862.160557     -862.160557  1.998161  2.349753 32.903264
   scf:   91     -893.266074     -883.171454     -883.171682  1.186641 -3.787959 13.231800
   scf:   92     -875.349568     -879.654037     -879.654037  0.293134 -1.299886 20.016356
   scf:   93     -872.472062     -876.345390     -876.345390  0.293119 -2.000750 20.658175
   scf:   94     -837.025239     -880.923359     -880.923359  1.998377 -6.066546 16.195018
   scf:   95     -779.112608     -866.951659     -866.951666  1.996860 -3.662118 25.780323
   scf:   96     -873.830692     -870.789396     -870.789396  0.194589 -3.574210 22.471685
   scf:   97     -846.070779     -883.423199     -883.423199  1.997032 -5.926749 13.770107
   scf:   98     -883.465051     -883.445376     -883.445376  0.008191 -5.581803 13.494502
   scf:   99     -881.817639     -882.704179     -882.704179  0.145338 -5.302741 13.872533
   scf:  100     -883.021634     -882.864023     -882.864023  0.014317 -5.197817 13.507993
   scf:  101     -883.867773     -883.381409     -883.381410  0.070513 -5.162326 12.804651
   scf:  102     -882.909897     -883.152781     -883.152781  0.026365 -5.039973 13.276902
   scf:  103     -623.032457     -814.713780     -814.713780  1.997554  2.063347 54.655985
   scf:  104     -854.120799     -874.994402     -874.994403  1.676978 -3.624340 23.752374
   scf:  105     -854.612001     -884.367106     -884.367423  1.993214 -6.375678 11.471257
   scf:  106     -884.792959     -884.953681     -884.966117  0.301433 -5.148190  9.408265
   scf:  107     -842.477828     -869.704723     -869.711959  0.884524 -5.398447 14.136179
   scf:  108     -794.570322     -867.463704     -867.463704  1.998359 -1.194532 31.340710
   scf:  109     -783.582340     -848.448540     -848.448540  1.280428 -2.399572 37.337685
   scf:  110     -886.507302     -870.147504     -870.147928  0.697693 -3.626260 25.529131
   scf:  111     -825.316458     -878.763069     -878.763069  1.996528 -6.345815 16.076456
   scf:  112     -885.718949     -882.669161     -882.669189  0.332900 -4.643709 12.462877
   scf:  113     -883.154489     -882.916016     -882.916040  0.036139 -4.772145 12.434182
   scf:  114     -885.818250     -884.531603     -884.531975  0.219140 -4.174709  9.979721
   scf:  115     -828.614294     -879.244154     -879.244156  1.985999 -3.106275 17.247069
   scf:  116     -884.257520     -881.955601     -881.955674  0.248082 -3.761712 14.685751
   scf:  117     -884.429942     -883.402545     -883.403221  0.221231 -3.832302 13.974436
   scf:  118     -881.677455     -882.587486     -882.587677  0.116916 -3.564027 15.060155
   scf:  119     -883.415723     -883.008683     -883.009169  0.043767 -3.907039 14.385799
   scf:  120     -852.137922     -884.059958     -884.060082  1.985598 -4.598350 10.991638
   scf:  121     -843.247839     -883.530216     -883.534359  1.953618 -4.037878 13.993147
   scf:  122     -881.828010     -882.690669     -882.690879  0.094085 -3.746194 15.007725
   scf:  123     -851.604651     -884.025300     -884.025473  1.988579 -4.540686 10.921759
   scf:  124     -837.474067     -882.053779     -882.053793  1.993006 -2.710828 16.256762
   scf:  125     -882.367111     -882.211706     -882.211722  0.020815 -2.842601 15.919315
   scf:  126     -881.982097     -882.102973     -882.103041  0.042634 -3.101528 16.008902
   scf:  127     -849.388331     -883.515168     -883.515335  1.994505 -5.155420 11.970494
   scf:  128     -884.421102     -883.977540     -883.978204  0.049950 -4.786423 10.973246
   scf:  129     -892.612036     -888.632335     -888.666868  0.277081 -4.277681  7.573382
   scf:  130     -847.246731     -883.017421     -883.019000  1.701368 -4.234777 14.031825
   scf:  131     -882.094612     -882.560495     -882.560953  0.059375 -3.831757 14.866705
   scf:  132     -896.814340     -892.868178     -892.931618  0.769726 -4.312459  5.002623
   scf:  133     -864.738752     -884.267160     -884.268303  1.220268 -4.991765 10.574427
   scf:  134     -887.922187     -886.122160     -886.136402  0.148341 -4.370913  8.321690
   scf:  135     -882.080268     -884.100957     -884.101469  0.153320 -4.857555 10.874535
   scf:  136     -884.775996     -884.441590     -884.442788  0.047051 -4.490645 10.105347
   scf:  137     -885.006011     -884.725175     -884.727234  0.037755 -4.379874  9.636537
   scf:  138     -883.561057     -884.147807     -884.148155  0.088002 -4.839558 10.889859
   scf:  139     -753.402418     -856.256593     -856.256669  1.993153  1.197797 36.386537
   scf:  140     -899.875417     -893.024952     -893.085121  1.403224 -4.125259  4.076389
   scf:  141     -863.800576     -883.939617     -883.939848  1.215037 -4.447012 11.036322
   scf:  142     -884.193029     -884.066443     -884.066769  0.019704 -4.341301 10.790653
   scf:  143     -883.603184     -883.833626     -883.833768  0.060912 -4.928984 11.528936
   scf:  144     -883.938847     -883.886263     -883.886454  0.012177 -4.746316 11.297994
   scf:  145     -883.847063     -883.866813     -883.866993  0.010414 -4.940205 11.451978
   scf:  146     -884.244951     -884.059281     -884.059487  0.032160 -5.004227 11.176478
   scf:  147     -750.244555     -855.428022     -855.428025  1.995317  1.213828 37.878379
   scf:  148     -892.974388     -882.352530     -882.352531  1.219768 -1.984079 16.052708
   scf:  149     -852.999932     -884.777957     -884.779909  1.978900 -4.345028  9.453567
   scf:  150     -884.644285     -884.711558     -884.713140  0.006944 -4.343512  9.598383
   scf:  151     -886.268459     -885.491181     -885.498216  0.097536 -3.988671  8.816767
   scf:  152     -845.492531     -883.649351     -883.657418  1.870570 -4.085261 13.963033
   scf:  153     -853.566005     -884.333450     -884.334371  1.935858 -5.011352 10.570218
   scf:  154     -885.267961     -884.801354     -884.803793  0.089705 -4.354302  9.537121
   scf:  155     -883.196300     -884.011586     -884.011789  0.106318 -5.059508 11.317889
   scf:  156     -884.430126     -884.222865     -884.223385  0.021290 -4.761666 10.709652
   scf:  157     -888.745358     -886.565963     -886.583331  0.152193 -4.237322  8.373386
   scf:  158     -884.754641     -885.668929     -885.677444  0.054010 -4.210275  8.459005
   scf:  159     -776.481103     -862.469205     -862.469333  1.929594 -0.176716 32.068771
   scf:  160     -887.874869     -877.299856     -877.300092  0.653398 -1.216377 21.809756
   scf:  161     -848.980332     -884.359653     -884.361175  1.984522 -4.545149 10.352968
   scf:  162     -838.311422     -882.182240     -882.182282  1.984131 -2.768966 16.042845
   scf:  163     -883.076902     -882.638760     -882.639015  0.046189 -3.791721 14.731662
   scf:  164     -851.840437     -884.086769     -884.087212  1.991186 -4.928735 11.094948
   scf:  165     -884.679413     -884.386490     -884.387640  0.036667 -4.588246 10.324284
   scf:  166     -884.130344     -884.258576     -884.259182  0.025996 -4.753054 10.659000
   scf:  167     -884.259321     -884.258963     -884.259565  0.002790 -4.800938 10.708876
   scf:  168     -884.229588     -884.244288     -884.244877  0.001597 -4.823856 10.755262
   scf:  169     -884.785241     -884.515573     -884.517282  0.052594 -4.520829 10.105793
   scf:  170     -742.652942     -852.464003     -852.464033  1.982241  2.435059 40.389871
   scf:  171     -891.894962     -879.772301     -879.773668  0.893496 -3.444937 16.379841
   scf:  172     -886.322763     -883.584092     -883.586106  0.378888 -4.215620 13.265019
   scf:  173     -852.879153     -884.644089     -884.648044  1.961658 -4.489188  9.847514
   scf:  174     -884.300155     -884.474541     -884.475883  0.054974 -4.457090 10.048910
   scf:  175     -893.677292     -889.517873     -889.560460  0.334480 -4.459105  7.005718
   scf:  176     -885.100085     -887.405025     -887.427972  0.162491 -4.030987  8.361351
   scf:  177     -881.754312     -884.650800     -884.653030  0.159093 -4.384456  9.834512
   scf:  178     -884.225156     -884.437147     -884.438495  0.045773 -4.515895 10.178490
   scf:  179     -842.076056     -883.114597     -883.116672  1.978511 -4.642696 13.984202
   scf:  180     -852.586462     -884.280571     -884.281421  1.983489 -5.010256 10.915304
   scf:  181     -884.389926     -884.335699     -884.337133  0.018413 -4.733729 10.562148
   scf:  182     -884.574738     -884.459125     -884.462670  0.053619 -4.630396 10.161828
   scf:  183     -884.400532     -884.432980     -884.434773  0.053211 -4.378623 10.068795
   scf:  184     -884.318017     -884.376361     -884.378780  0.022346 -4.570037 10.382845
   scf:  185     -885.836171     -885.105569     -885.114487  0.102916 -4.420466  9.553298
   scf:  186     -863.782671     -879.865411     -879.865572  1.172931 -0.940747 14.099060
   scf:  187     -880.825385     -880.382404     -880.384035  0.089407 -2.090811 11.511280
   scf:  188     -849.533617     -882.371101     -882.376194  1.975303 -2.317131 16.538932
   scf:  189     -852.532879     -884.042514     -884.045910  1.983422 -4.270660 10.604759
   scf:  190     -885.497942     -884.894104     -884.894395  0.183221 -3.935159  9.166674
   scf:  191     -846.547852     -884.113199     -884.113873  1.994412 -3.972777 11.732522
   scf:  192     -883.836893     -884.113828     -884.122819  0.174658 -4.659909 12.753697
   scf:  193     -853.609405     -884.306221     -884.307070  1.947345 -4.977699 10.920649
   scf:  194     -884.411481     -884.360155     -884.361313  0.038840 -4.794735 10.662908
   scf:  195     -884.127567     -884.243925     -884.244733  0.028184 -4.788274 10.827876
   scf:  196     -884.796332     -884.521242     -884.522711  0.050673 -4.686830 10.330614
   scf:  197     -884.287157     -884.404372     -884.405499  0.019241 -4.718923 10.528129
   scf:  198     -884.214402     -884.309332     -884.310158  0.022308 -4.764676 10.694894
   scf:  199     -821.382664     -876.469938     -876.469938  1.986175  1.469361 26.472905
   scf:  200     -852.885860     -884.763667     -884.764100  1.977377 -2.218744  9.989844
   scf:  201     -843.854846     -883.314645     -883.318530  1.935159 -2.382323 15.201641
   scf:  202     -865.220396     -888.457801     -888.491533  1.682184 -4.724485  7.213735
   scf:  203     -882.791115     -885.733163     -885.744616  0.178311 -4.739463  9.393549
   scf:  204     -883.022619     -884.365736     -884.366747  0.098645 -4.697867 10.521340
   scf:  205     -884.431104     -884.398664     -884.399922  0.005022 -4.654110 10.365961
   scf:  206     -884.414104     -884.406488     -884.407942  0.006657 -4.636083 10.277244
   scf:  207     -885.436568     -885.000061     -885.002874  0.133919 -3.587923 11.421156
   scf:  208     -883.709005     -884.419111     -884.420857  0.117161 -4.840559 10.332569
   scf:  209     -827.759510     -878.217199     -878.217200  1.947135-12.476359 40.679651
   scf:  210     -886.279538     -883.217293     -883.217394  0.386332 -3.250832 14.512150
   scf:  211     -852.101584     -884.450887     -884.451831  1.978730 -4.478749 10.398941
   scf:  212     -842.686659     -883.314201     -883.315167  1.971101 -4.447262 12.991261
   scf:  213     -852.449199     -884.638404     -884.640554  1.965669 -4.543574 10.028534
   scf:  214     -884.352207     -884.494786     -884.496668  0.033088 -4.589995 10.166099
   scf:  215     -884.799587     -884.647764     -884.650619  0.024692 -4.619414  9.957804
   scf:  216     -884.308966     -884.476766     -884.479093  0.057579 -4.586784  9.977595
   scf:  217     -884.447724     -884.462385     -884.464498  0.004175 -4.501484  9.954806
   scf:  218     -884.587812     -884.524767     -884.526823  0.033748 -4.577811 10.073058
   scf:  219      524.883081     -423.237175     -423.237178  1.999845-15.512647109.480010
   scf:  220     -903.633831     -885.321149     -885.338413  1.999832 -2.697127 11.295687
   scf:  221     -844.004982     -883.045833     -883.045901  1.995316 -3.832236 14.235844
   scf:  222     -882.973497     -883.011557     -883.011737  0.024076 -4.094649 14.004233
   scf:  223     -883.092236     -883.055723     -883.056549  0.039812 -4.858907 13.170681
   scf:  224     -852.454844     -884.799711     -884.802903  1.961184 -4.802713 10.108883
   scf:  225     -893.307042     -889.430345     -889.472223  0.310856 -4.932734  6.537816
   scf:  226     -881.441521     -885.662225     -885.673408  0.260631 -4.786818  9.351916
   scf:  227     -884.087670     -884.877965     -884.881606  0.044808 -4.781002 10.038417
   scf:  228     -885.106804     -884.992360     -884.996746  0.014062 -4.815744 10.036628
   scf:  229     -875.477863     -890.828881     -890.883959  1.452963 -4.972137  7.212223
   scf:  230     -860.338310     -884.773012     -884.776149  1.463495 -4.817014 10.282489
   scf:  231     -885.452767     -885.112829     -885.119660  0.022730 -4.907095 10.148744
   scf:  232     -884.833786     -884.973280     -884.977772  0.012470 -4.703958  9.974733
   scf:  233     -885.085648     -885.029458     -885.034579  0.003872 -4.728458  9.963197
   scf:  234     -884.760080     -884.894805     -884.898082  0.020772 -4.624691  9.880275
   scf:  235     -884.890133     -884.892552     -884.896285  0.006054 -4.651296  9.941415
   scf:  236     -822.319995     -875.848817     -875.848831  1.953351-11.917950 19.253212
   scf:  237     -885.341843     -883.422308     -883.422861  0.657837 -6.036327 12.423687
   scf:  238     -882.884307     -883.186776     -883.189755  0.107616 -5.582002 11.834099
   scf:  239     -885.772805     -884.519856     -884.536455  0.099581 -5.019475 12.118412
   scf:  240     -892.791012     -889.048380     -889.094663  0.271158 -4.968662  8.874076
   scf:  241     -893.864626     -891.772208     -891.832946  0.246568 -4.938601  6.050341
   scf:  242     -870.937833     -883.170907     -883.173654  0.593126 -5.476950 12.182334
   scf:  243     -883.313432     -883.242704     -883.245325  0.016335 -5.491894 12.086120
   scf:  244     -883.349594     -883.296302     -883.299358  0.007897 -5.497504 12.017258
   scf:  245     -883.367267     -883.331833     -883.334952  0.003829 -5.535259 11.934189
   scf:  246     -883.438464     -883.385358     -883.389990  0.014067 -5.599184 11.855770
   scf:  247     -848.493670     -882.763363     -882.764014  1.991870 -6.422876 14.241405
   scf:  248     -885.832609     -884.429077     -884.429145  0.183519 -4.770895 10.544569
   scf:  249     -869.475815     -889.622154     -889.677573  1.591169 -4.873725  8.714686
   scf:  250     -857.616411     -884.011408     -884.011553  1.593730 -5.175818 11.586033
SCF_NOT_CONV: SCF did not converge in maximum number of steps (required).
Geom step, scf iteration, dDmax, dHmax:   19   250      1.593730     0.851558

timer: Elapsed wall time (sec) =     123.306
timer: CPU execution times (sec):

Routine            Calls   Time/call    Tot.time        %
siesta                 1     578.855     578.855   100.00
Setup                  1       1.089       1.089     0.19
bands                  1       0.000       0.000     0.00
KSV_init               1       0.000       0.000     0.00
IterGeom              19      30.409     577.766    99.81
geom_init             19       0.217       4.125     0.71
state_init            19       0.003       0.060     0.01
hsparse               19       0.000       0.001     0.00
overlap               19       0.003       0.056     0.01
Setup_H0              19       0.112       2.119     0.37
naefs                 37       0.000       0.001     0.00
dnaefs                37       0.000       0.000     0.00
MolMec                37       0.000       0.000     0.00
kinefsm               37       0.002       0.057     0.01
nlefsm                37       0.012       0.449     0.08
DHSCF_Init            19       0.086       1.625     0.28
DHSCF1                19       0.008       0.145     0.03
InitMesh              19       0.008       0.145     0.03
INITMESH              19       0.000       0.000     0.00
DHSCF2                19       0.078       1.480     0.26
REMESH                19       0.003       0.056     0.01
REORD               2375       0.002       5.223     0.90
PHION                 19       0.038       0.714     0.12
COMM_BSC            4259       0.002       7.133     1.23
POISON              1070       0.160     171.208    29.58
fft                 2140       0.057     122.870    21.23
setup_H             1033       0.553     571.316    98.70
DHSCF               1051       0.546     573.702    99.11
DHSCF3              1051       0.545     572.520    98.91
rhoofd              1051       0.035      36.956     6.38
XC                  1051       0.295     310.129    53.58
GXC-CellXC          1051       0.282     296.368    51.20
gridxc@cellXC       1051       0.282     296.344    51.19
vmat                1051       0.004       4.244     0.73
IterSCF             1014       0.563     570.597    98.57
compute_dm          1014       0.001       1.083     0.19
diagon              1014       0.001       1.069     0.18
r-eigvec            1014       0.001       0.924     0.16
r-buildHS           1014       0.000       0.002     0.00
rdiag               1014       0.001       0.917     0.16
rdiag1              1014       0.000       0.004     0.00
rdiag2              1014       0.000       0.013     0.00
rdiag3              1014       0.001       0.849     0.15
rdiag4              1014       0.000       0.037     0.01
r-buildD            1014       0.000       0.100     0.02
MIXER                996       0.000       0.027     0.00
PostSCF               18       0.168       3.023     0.52
FINAL_HF              18       0.168       3.023     0.52
DHSCF4                18       0.066       1.179     0.20
dfscf                 18       0.048       0.872     0.15
overfsm               18       0.000       0.003     0.00
writeHSX              18       0.000       0.002     0.00
state_analysis        18       0.000       0.002     0.00
siesta_move           18       0.000       0.004     0.00
  
ABNORMAL_TERMINATION
Stopping Program from Node:    0
